; GROMACS Topology for IBUP
; Predicted by CGSpringGNN (GNN Coarse-Grained Force Field Engine)

[ moleculetype ]
; molname      nrexcl
  IBUP         1

[ atoms ]
; nr   type   resnr  resname  atom   cgnr   charge   mass
  1    SC1    1      IBUP   B1    1      0.00   54.0
  2    TC5    1      IBUP   B2    2      0.00   36.0
  3    TC5    1      IBUP   B3    3      0.00   36.0
  4    Qa     1      IBUP   B4    4     -1.00   72.0

[ bonds ]
; i    j    funct   r0 [nm]   k [kJ/mol/nm^2]
  1    2    1        0.4105     4389.6
  2    3    1        0.3662     4568.4
  3    4    1        0.4044     4887.1

[ angles ]
; i    j    k    funct   theta0 [deg]   k [kJ/mol/rad^2]
  1    2    3    2        113.07          59.49
  2    3    4    2        116.97          77.90

