; Synthetic MARTINI 3 molecule: LIP095
; Generated by make_sample_data.py for pipeline testing

[ moleculetype ]
; name  nrexcl
LIP095  1

[ atoms ]
; nr  type  resnr residue atom cgnr charge mass
  1  Qd  1  MOL  B1  1  1.0  72.0
  2  SC1  1  MOL  B2  2  0.0  54.0
  3  SC2  1  MOL  B3  3  0.0  54.0
  4  SC1  1  MOL  B4  4  0.0  54.0
  5  C1  1  MOL  B5  5  0.0  72.0
  6  SC1  1  MOL  B6  6  0.0  54.0
  7  SC2  1  MOL  B7  7  0.0  54.0

[ bonds ]
; i  j  funct  r0[nm]  k[kJ/mol/nm2]
  1  2  1  0.5236  5312.7
  2  3  1  0.4752  2301.1
  3  4  1  0.3725  2197.2
  4  5  1  0.4015  2542.6
  5  6  1  0.4020  3540.2
  6  7  1  0.5386  4441.5

[ angles ]
; i  j  k  funct  theta0[deg]  k[kJ/mol/rad2]
  1  2  3  2  140.1  89.6
  2  3  4  2  96.8  92.3
  3  4  5  2  106.5  82.1
  4  5  6  2  110.5  119.8
  5  6  7  2  105.8  44.3

