; Synthetic MARTINI 3 molecule: LIP036
; Generated by make_sample_data.py for pipeline testing

[ moleculetype ]
; name  nrexcl
LIP036  1

[ atoms ]
; nr  type  resnr residue atom cgnr charge mass
  1  TP1  1  MOL  B1  1  0.0  36.0
  2  P2  1  MOL  B2  2  0.0  72.0
  3  C1  1  MOL  B3  3  0.0  72.0
  4  SC3  1  MOL  B4  4  0.0  54.0
  5  SC2  1  MOL  B5  5  0.0  54.0
  6  SC1  1  MOL  B6  6  0.0  54.0
  7  C1  1  MOL  B7  7  0.0  72.0
  8  C2  1  MOL  B8  8  0.0  72.0

[ bonds ]
; i  j  funct  r0[nm]  k[kJ/mol/nm2]
  1  2  1  0.3868  5576.0
  2  3  1  0.4809  2608.4
  3  4  1  0.4381  4461.2
  4  5  1  0.3667  5529.7
  5  6  1  0.5107  4020.8
  6  7  1  0.5434  3671.0
  7  8  1  0.5468  4671.7

[ angles ]
; i  j  k  funct  theta0[deg]  k[kJ/mol/rad2]
  1  2  3  2  128.1  32.4
  2  3  4  2  142.9  59.9
  3  4  5  2  99.7  16.3
  4  5  6  2  123.6  70.4
  5  6  7  2  133.2  108.5
  6  7  8  2  94.8  91.8

