; Synthetic MARTINI 3 molecule: LIP038
; Generated by make_sample_data.py for pipeline testing

[ moleculetype ]
; name  nrexcl
LIP038  1

[ atoms ]
; nr  type  resnr residue atom cgnr charge mass
  1  Q2  1  MOL  B1  1  0.5  72.0
  2  TP2  1  MOL  B2  2  0.0  36.0
  3  TC1  1  MOL  B3  3  0.0  36.0
  4  SC3  1  MOL  B4  4  0.0  54.0
  5  C1  1  MOL  B5  5  0.0  72.0

[ bonds ]
; i  j  funct  r0[nm]  k[kJ/mol/nm2]
  1  2  1  0.5159  3126.1
  2  3  1  0.5246  2450.3
  3  4  1  0.4907  4162.8
  4  5  1  0.3693  2967.6

[ angles ]
; i  j  k  funct  theta0[deg]  k[kJ/mol/rad2]
  1  2  3  2  90.7  64.2
  2  3  4  2  108.1  77.8
  3  4  5  2  107.8  46.5

