; Synthetic MARTINI 3 molecule: LIP055
; Generated by make_sample_data.py for pipeline testing

[ moleculetype ]
; name  nrexcl
LIP055  1

[ atoms ]
; nr  type  resnr residue atom cgnr charge mass
  1  Qa  1  MOL  B1  1  -1.0  72.0
  2  P1  1  MOL  B2  2  0.0  72.0
  3  P5  1  MOL  B3  3  0.0  72.0
  4  SC1  1  MOL  B4  4  0.0  54.0
  5  SC2  1  MOL  B5  5  0.0  54.0
  6  C2  1  MOL  B6  6  0.0  72.0
  7  TC2  1  MOL  B7  7  0.0  36.0
  8  C4  1  MOL  B8  8  0.0  72.0
  9  C3  1  MOL  B9  9  0.0  72.0

[ bonds ]
; i  j  funct  r0[nm]  k[kJ/mol/nm2]
  1  2  1  0.4565  2461.6
  2  3  1  0.4711  2468.8
  3  4  1  0.4174  2571.4
  4  5  1  0.4884  2825.0
  5  6  1  0.4284  5582.7
  6  7  1  0.3909  4031.2
  7  8  1  0.4339  2072.5
  8  9  1  0.5086  2276.2

[ angles ]
; i  j  k  funct  theta0[deg]  k[kJ/mol/rad2]
  1  2  3  2  118.5  73.9
  2  3  4  2  127.7  87.3
  3  4  5  2  105.2  16.0
  4  5  6  2  133.4  71.2
  5  6  7  2  140.2  101.2
  6  7  8  2  140.6  65.9
  7  8  9  2  110.0  98.1

