; Synthetic MARTINI 3 molecule: LIP077
; Generated by make_sample_data.py for pipeline testing

[ moleculetype ]
; name  nrexcl
LIP077  1

[ atoms ]
; nr  type  resnr residue atom cgnr charge mass
  1  SP2  1  MOL  B1  1  0.0  54.0
  2  SC2  1  MOL  B2  2  0.0  54.0
  3  SC1  1  MOL  B3  3  0.0  54.0
  4  C4  1  MOL  B4  4  0.0  72.0
  5  C2  1  MOL  B5  5  0.0  72.0
  6  C1  1  MOL  B6  6  0.0  72.0

[ bonds ]
; i  j  funct  r0[nm]  k[kJ/mol/nm2]
  1  2  1  0.4838  3935.2
  2  3  1  0.4337  3431.2
  3  4  1  0.4688  4302.4
  4  5  1  0.3823  3887.0
  5  6  1  0.4607  4281.1

[ angles ]
; i  j  k  funct  theta0[deg]  k[kJ/mol/rad2]
  1  2  3  2  102.6  92.9
  2  3  4  2  91.5  52.3
  3  4  5  2  136.8  74.2
  4  5  6  2  105.7  88.0

