; Synthetic MARTINI 3 molecule: LIP001
; Generated by make_sample_data.py for pipeline testing

[ moleculetype ]
; name  nrexcl
LIP001  1

[ atoms ]
; nr  type  resnr residue atom cgnr charge mass
  1  Qa  1  MOL  B1  1  -1.0  72.0
  2  Q2  1  MOL  B2  2  0.5  72.0
  3  Qa  1  MOL  B3  3  -1.0  72.0
  4  TC2  1  MOL  B4  4  0.0  36.0
  5  SC3  1  MOL  B5  5  0.0  54.0
  6  C4  1  MOL  B6  6  0.0  72.0
  7  TC1  1  MOL  B7  7  0.0  36.0

[ bonds ]
; i  j  funct  r0[nm]  k[kJ/mol/nm2]
  1  2  1  0.3569  5637.3
  2  3  1  0.4018  4650.1
  3  4  1  0.4123  4080.3
  4  5  1  0.4593  2739.4
  5  6  1  0.5439  5100.5
  6  7  1  0.5379  5579.3

[ angles ]
; i  j  k  funct  theta0[deg]  k[kJ/mol/rad2]
  1  2  3  2  125.9  111.8
  2  3  4  2  95.3  35.6
  3  4  5  2  92.7  49.2
  4  5  6  2  113.3  43.5
  5  6  7  2  139.7  52.5

