; Synthetic MARTINI 3 molecule: LIP016
; Generated by make_sample_data.py for pipeline testing

[ moleculetype ]
; name  nrexcl
LIP016  1

[ atoms ]
; nr  type  resnr residue atom cgnr charge mass
  1  SP1  1  MOL  B1  1  0.0  54.0
  2  Qd  1  MOL  B2  2  1.0  72.0
  3  TP2  1  MOL  B3  3  0.0  36.0
  4  SC3  1  MOL  B4  4  0.0  54.0
  5  C3  1  MOL  B5  5  0.0  72.0
  6  C4  1  MOL  B6  6  0.0  72.0

[ bonds ]
; i  j  funct  r0[nm]  k[kJ/mol/nm2]
  1  2  1  0.5027  2560.5
  2  3  1  0.5237  3949.7
  3  4  1  0.5289  5199.4
  4  5  1  0.4350  2089.9
  5  6  1  0.4037  4166.5

[ angles ]
; i  j  k  funct  theta0[deg]  k[kJ/mol/rad2]
  1  2  3  2  128.0  42.1
  2  3  4  2  98.4  102.7
  3  4  5  2  149.1  70.2
  4  5  6  2  100.3  43.6

