; Synthetic MARTINI 3 molecule: LIP015
; Generated by make_sample_data.py for pipeline testing

[ moleculetype ]
; name  nrexcl
LIP015  1

[ atoms ]
; nr  type  resnr residue atom cgnr charge mass
  1  P1  1  MOL  B1  1  0.0  72.0
  2  SP1  1  MOL  B2  2  0.0  54.0
  3  C3  1  MOL  B3  3  0.0  72.0
  4  SC1  1  MOL  B4  4  0.0  54.0
  5  C3  1  MOL  B5  5  0.0  72.0

[ bonds ]
; i  j  funct  r0[nm]  k[kJ/mol/nm2]
  1  2  1  0.3634  4999.8
  2  3  1  0.3920  5592.2
  3  4  1  0.3910  2762.8
  4  5  1  0.3573  3888.3

[ angles ]
; i  j  k  funct  theta0[deg]  k[kJ/mol/rad2]
  1  2  3  2  123.9  21.9
  2  3  4  2  136.5  62.6
  3  4  5  2  121.5  61.3

