; Synthetic MARTINI 3 molecule: LIP078
; Generated by make_sample_data.py for pipeline testing

[ moleculetype ]
; name  nrexcl
LIP078  1

[ atoms ]
; nr  type  resnr residue atom cgnr charge mass
  1  P2  1  MOL  B1  1  0.0  72.0
  2  P3  1  MOL  B2  2  0.0  72.0
  3  C2  1  MOL  B3  3  0.0  72.0
  4  TC1  1  MOL  B4  4  0.0  36.0
  5  C3  1  MOL  B5  5  0.0  72.0
  6  TC1  1  MOL  B6  6  0.0  36.0

[ bonds ]
; i  j  funct  r0[nm]  k[kJ/mol/nm2]
  1  2  1  0.5223  4308.5
  2  3  1  0.5281  4387.8
  3  4  1  0.5120  3718.7
  4  5  1  0.5000  5652.2
  5  6  1  0.4644  2723.1

[ angles ]
; i  j  k  funct  theta0[deg]  k[kJ/mol/rad2]
  1  2  3  2  106.1  35.9
  2  3  4  2  104.8  47.2
  3  4  5  2  123.3  76.7
  4  5  6  2  115.6  79.6

