; Synthetic MARTINI 3 molecule: LIP044
; Generated by make_sample_data.py for pipeline testing

[ moleculetype ]
; name  nrexcl
LIP044  1

[ atoms ]
; nr  type  resnr residue atom cgnr charge mass
  1  P3  1  MOL  B1  1  0.0  72.0
  2  P3  1  MOL  B2  2  0.0  72.0
  3  P2  1  MOL  B3  3  0.0  72.0
  4  SC3  1  MOL  B4  4  0.0  54.0
  5  C4  1  MOL  B5  5  0.0  72.0
  6  TC1  1  MOL  B6  6  0.0  36.0
  7  C3  1  MOL  B7  7  0.0  72.0

[ bonds ]
; i  j  funct  r0[nm]  k[kJ/mol/nm2]
  1  2  1  0.3965  3124.0
  2  3  1  0.5107  5716.9
  3  4  1  0.4310  5624.4
  4  5  1  0.4143  3905.7
  5  6  1  0.3952  4561.9
  6  7  1  0.5458  4414.0

[ angles ]
; i  j  k  funct  theta0[deg]  k[kJ/mol/rad2]
  1  2  3  2  111.5  83.0
  2  3  4  2  97.4  108.3
  3  4  5  2  120.2  62.2
  4  5  6  2  125.2  80.6
  5  6  7  2  94.3  86.7

