; Synthetic MARTINI 3 molecule: LIP068
; Generated by make_sample_data.py for pipeline testing

[ moleculetype ]
; name  nrexcl
LIP068  1

[ atoms ]
; nr  type  resnr residue atom cgnr charge mass
  1  P5  1  MOL  B1  1  0.0  72.0
  2  P1  1  MOL  B2  2  0.0  72.0
  3  Q2  1  MOL  B3  3  0.5  72.0
  4  TC1  1  MOL  B4  4  0.0  36.0
  5  SC2  1  MOL  B5  5  0.0  54.0
  6  TC2  1  MOL  B6  6  0.0  36.0
  7  C2  1  MOL  B7  7  0.0  72.0

[ bonds ]
; i  j  funct  r0[nm]  k[kJ/mol/nm2]
  1  2  1  0.4043  5617.0
  2  3  1  0.4249  4199.5
  3  4  1  0.3601  3704.5
  4  5  1  0.5165  5222.6
  5  6  1  0.3949  2904.3
  6  7  1  0.5135  5721.6

[ angles ]
; i  j  k  funct  theta0[deg]  k[kJ/mol/rad2]
  1  2  3  2  95.7  62.3
  2  3  4  2  110.2  106.4
  3  4  5  2  95.0  37.2
  4  5  6  2  135.1  20.4
  5  6  7  2  119.6  61.4

