; Synthetic MARTINI 3 molecule: LIP070
; Generated by make_sample_data.py for pipeline testing

[ moleculetype ]
; name  nrexcl
LIP070  1

[ atoms ]
; nr  type  resnr residue atom cgnr charge mass
  1  P2  1  MOL  B1  1  0.0  72.0
  2  P1  1  MOL  B2  2  0.0  72.0
  3  P5  1  MOL  B3  3  0.0  72.0
  4  C4  1  MOL  B4  4  0.0  72.0
  5  C3  1  MOL  B5  5  0.0  72.0
  6  TC2  1  MOL  B6  6  0.0  36.0

[ bonds ]
; i  j  funct  r0[nm]  k[kJ/mol/nm2]
  1  2  1  0.4968  3365.3
  2  3  1  0.4457  5715.4
  3  4  1  0.4164  3861.3
  4  5  1  0.3527  2326.4
  5  6  1  0.4017  2111.4

[ angles ]
; i  j  k  funct  theta0[deg]  k[kJ/mol/rad2]
  1  2  3  2  127.9  59.8
  2  3  4  2  122.9  33.3
  3  4  5  2  107.8  84.7
  4  5  6  2  147.9  20.3

