; Synthetic MARTINI 3 molecule: LIP098
; Generated by make_sample_data.py for pipeline testing

[ moleculetype ]
; name  nrexcl
LIP098  1

[ atoms ]
; nr  type  resnr residue atom cgnr charge mass
  1  SP2  1  MOL  B1  1  0.0  54.0
  2  P5  1  MOL  B2  2  0.0  72.0
  3  C1  1  MOL  B3  3  0.0  72.0
  4  C4  1  MOL  B4  4  0.0  72.0
  5  C2  1  MOL  B5  5  0.0  72.0

[ bonds ]
; i  j  funct  r0[nm]  k[kJ/mol/nm2]
  1  2  1  0.4813  5627.9
  2  3  1  0.3837  5873.3
  3  4  1  0.4406  5782.9
  4  5  1  0.4854  3206.3

[ angles ]
; i  j  k  funct  theta0[deg]  k[kJ/mol/rad2]
  1  2  3  2  101.3  46.9
  2  3  4  2  95.6  30.1
  3  4  5  2  96.3  59.4

