; Synthetic MARTINI 3 molecule: LIP059
; Generated by make_sample_data.py for pipeline testing

[ moleculetype ]
; name  nrexcl
LIP059  1

[ atoms ]
; nr  type  resnr residue atom cgnr charge mass
  1  TP2  1  MOL  B1  1  0.0  36.0
  2  TP2  1  MOL  B2  2  0.0  36.0
  3  Q2  1  MOL  B3  3  0.5  72.0
  4  SC2  1  MOL  B4  4  0.0  54.0
  5  C2  1  MOL  B5  5  0.0  72.0
  6  SC3  1  MOL  B6  6  0.0  54.0
  7  C1  1  MOL  B7  7  0.0  72.0

[ bonds ]
; i  j  funct  r0[nm]  k[kJ/mol/nm2]
  1  2  1  0.3807  4290.4
  2  3  1  0.4054  5685.2
  3  4  1  0.4666  4371.4
  4  5  1  0.4210  2208.0
  5  6  1  0.3563  3693.3
  6  7  1  0.3669  4427.4

[ angles ]
; i  j  k  funct  theta0[deg]  k[kJ/mol/rad2]
  1  2  3  2  142.9  107.7
  2  3  4  2  129.5  37.2
  3  4  5  2  141.8  108.0
  4  5  6  2  101.8  92.4
  5  6  7  2  107.2  99.3

