; Synthetic MARTINI 3 molecule: LIP003
; Generated by make_sample_data.py for pipeline testing

[ moleculetype ]
; name  nrexcl
LIP003  1

[ atoms ]
; nr  type  resnr residue atom cgnr charge mass
  1  Q2  1  MOL  B1  1  0.5  72.0
  2  P5  1  MOL  B2  2  0.0  72.0
  3  C2  1  MOL  B3  3  0.0  72.0
  4  C3  1  MOL  B4  4  0.0  72.0
  5  TC2  1  MOL  B5  5  0.0  36.0
  6  C4  1  MOL  B6  6  0.0  72.0

[ bonds ]
; i  j  funct  r0[nm]  k[kJ/mol/nm2]
  1  2  1  0.4767  4143.1
  2  3  1  0.3681  5341.2
  3  4  1  0.4142  2746.1
  4  5  1  0.3582  4363.6
  5  6  1  0.4855  2066.4

[ angles ]
; i  j  k  funct  theta0[deg]  k[kJ/mol/rad2]
  1  2  3  2  120.7  38.8
  2  3  4  2  128.7  33.3
  3  4  5  2  131.5  55.6
  4  5  6  2  146.2  29.4

