; Synthetic MARTINI 3 molecule: LIP071
; Generated by make_sample_data.py for pipeline testing

[ moleculetype ]
; name  nrexcl
LIP071  1

[ atoms ]
; nr  type  resnr residue atom cgnr charge mass
  1  P5  1  MOL  B1  1  0.0  72.0
  2  SC3  1  MOL  B2  2  0.0  54.0
  3  C1  1  MOL  B3  3  0.0  72.0
  4  SC2  1  MOL  B4  4  0.0  54.0
  5  C4  1  MOL  B5  5  0.0  72.0

[ bonds ]
; i  j  funct  r0[nm]  k[kJ/mol/nm2]
  1  2  1  0.5415  4263.0
  2  3  1  0.4529  2340.2
  3  4  1  0.4598  3519.9
  4  5  1  0.4714  3554.9

[ angles ]
; i  j  k  funct  theta0[deg]  k[kJ/mol/rad2]
  1  2  3  2  104.4  25.0
  2  3  4  2  108.9  25.1
  3  4  5  2  100.6  118.7

