; Synthetic MARTINI 3 molecule: LIP018
; Generated by make_sample_data.py for pipeline testing

[ moleculetype ]
; name  nrexcl
LIP018  1

[ atoms ]
; nr  type  resnr residue atom cgnr charge mass
  1  P1  1  MOL  B1  1  0.0  72.0
  2  P2  1  MOL  B2  2  0.0  72.0
  3  P5  1  MOL  B3  3  0.0  72.0
  4  C3  1  MOL  B4  4  0.0  72.0
  5  SC1  1  MOL  B5  5  0.0  54.0
  6  C1  1  MOL  B6  6  0.0  72.0
  7  C2  1  MOL  B7  7  0.0  72.0
  8  SC3  1  MOL  B8  8  0.0  54.0

[ bonds ]
; i  j  funct  r0[nm]  k[kJ/mol/nm2]
  1  2  1  0.3861  4271.8
  2  3  1  0.5331  2135.8
  3  4  1  0.4895  3189.4
  4  5  1  0.5349  5884.2
  5  6  1  0.5389  3896.9
  6  7  1  0.5224  5378.2
  7  8  1  0.4138  5315.7

[ angles ]
; i  j  k  funct  theta0[deg]  k[kJ/mol/rad2]
  1  2  3  2  92.2  77.6
  2  3  4  2  103.8  27.7
  3  4  5  2  94.6  88.1
  4  5  6  2  110.4  91.1
  5  6  7  2  93.9  48.1
  6  7  8  2  122.4  98.0

