; Synthetic MARTINI 3 molecule: LIP091
; Generated by make_sample_data.py for pipeline testing

[ moleculetype ]
; name  nrexcl
LIP091  1

[ atoms ]
; nr  type  resnr residue atom cgnr charge mass
  1  TP2  1  MOL  B1  1  0.0  36.0
  2  SC1  1  MOL  B2  2  0.0  54.0
  3  C3  1  MOL  B3  3  0.0  72.0
  4  C2  1  MOL  B4  4  0.0  72.0
  5  C4  1  MOL  B5  5  0.0  72.0
  6  C4  1  MOL  B6  6  0.0  72.0

[ bonds ]
; i  j  funct  r0[nm]  k[kJ/mol/nm2]
  1  2  1  0.3786  4319.3
  2  3  1  0.4065  3116.0
  3  4  1  0.4310  5995.2
  4  5  1  0.3610  4314.2
  5  6  1  0.3665  2618.1

[ angles ]
; i  j  k  funct  theta0[deg]  k[kJ/mol/rad2]
  1  2  3  2  116.4  68.6
  2  3  4  2  105.5  48.2
  3  4  5  2  95.2  46.8
  4  5  6  2  148.0  114.2

