; Synthetic MARTINI 3 molecule: LIP054
; Generated by make_sample_data.py for pipeline testing

[ moleculetype ]
; name  nrexcl
LIP054  1

[ atoms ]
; nr  type  resnr residue atom cgnr charge mass
  1  SP1  1  MOL  B1  1  0.0  54.0
  2  Q2  1  MOL  B2  2  0.5  72.0
  3  SC1  1  MOL  B3  3  0.0  54.0
  4  SC2  1  MOL  B4  4  0.0  54.0
  5  C3  1  MOL  B5  5  0.0  72.0
  6  TC1  1  MOL  B6  6  0.0  36.0
  7  C2  1  MOL  B7  7  0.0  72.0
  8  C2  1  MOL  B8  8  0.0  72.0

[ bonds ]
; i  j  funct  r0[nm]  k[kJ/mol/nm2]
  1  2  1  0.5406  3307.0
  2  3  1  0.4209  4022.5
  3  4  1  0.5382  5505.3
  4  5  1  0.3705  3570.9
  5  6  1  0.4607  4012.5
  6  7  1  0.3888  5435.3
  7  8  1  0.4854  5351.6

[ angles ]
; i  j  k  funct  theta0[deg]  k[kJ/mol/rad2]
  1  2  3  2  141.5  93.6
  2  3  4  2  116.4  79.1
  3  4  5  2  99.6  85.7
  4  5  6  2  100.8  87.9
  5  6  7  2  103.8  27.3
  6  7  8  2  99.9  15.2

