; Synthetic MARTINI 3 molecule: LIP023
; Generated by make_sample_data.py for pipeline testing

[ moleculetype ]
; name  nrexcl
LIP023  1

[ atoms ]
; nr  type  resnr residue atom cgnr charge mass
  1  Qa  1  MOL  B1  1  -1.0  72.0
  2  C3  1  MOL  B2  2  0.0  72.0
  3  C4  1  MOL  B3  3  0.0  72.0
  4  C2  1  MOL  B4  4  0.0  72.0
  5  SC3  1  MOL  B5  5  0.0  54.0
  6  SC3  1  MOL  B6  6  0.0  54.0
  7  SC2  1  MOL  B7  7  0.0  54.0

[ bonds ]
; i  j  funct  r0[nm]  k[kJ/mol/nm2]
  1  2  1  0.4985  3702.0
  2  3  1  0.4192  3484.2
  3  4  1  0.5475  2160.4
  4  5  1  0.5234  4314.7
  5  6  1  0.4377  4901.0
  6  7  1  0.4473  5493.7

[ angles ]
; i  j  k  funct  theta0[deg]  k[kJ/mol/rad2]
  1  2  3  2  144.0  59.3
  2  3  4  2  106.6  77.2
  3  4  5  2  144.7  37.1
  4  5  6  2  127.4  81.3
  5  6  7  2  134.0  28.8

