; Synthetic MARTINI 3 molecule: LIP026
; Generated by make_sample_data.py for pipeline testing

[ moleculetype ]
; name  nrexcl
LIP026  1

[ atoms ]
; nr  type  resnr residue atom cgnr charge mass
  1  TP1  1  MOL  B1  1  0.0  36.0
  2  Qa  1  MOL  B2  2  -1.0  72.0
  3  P5  1  MOL  B3  3  0.0  72.0
  4  SC2  1  MOL  B4  4  0.0  54.0
  5  C3  1  MOL  B5  5  0.0  72.0
  6  C2  1  MOL  B6  6  0.0  72.0
  7  C3  1  MOL  B7  7  0.0  72.0

[ bonds ]
; i  j  funct  r0[nm]  k[kJ/mol/nm2]
  1  2  1  0.4722  3644.1
  2  3  1  0.5180  5600.1
  3  4  1  0.4207  2947.5
  4  5  1  0.5061  3099.2
  5  6  1  0.5145  3695.0
  6  7  1  0.4835  2382.1

[ angles ]
; i  j  k  funct  theta0[deg]  k[kJ/mol/rad2]
  1  2  3  2  127.4  62.4
  2  3  4  2  125.2  32.6
  3  4  5  2  134.2  105.6
  4  5  6  2  103.0  25.1
  5  6  7  2  91.4  82.4

