; Synthetic MARTINI 3 molecule: LIP047
; Generated by make_sample_data.py for pipeline testing

[ moleculetype ]
; name  nrexcl
LIP047  1

[ atoms ]
; nr  type  resnr residue atom cgnr charge mass
  1  P4  1  MOL  B1  1  0.0  72.0
  2  P3  1  MOL  B2  2  0.0  72.0
  3  TC2  1  MOL  B3  3  0.0  36.0
  4  SC2  1  MOL  B4  4  0.0  54.0
  5  TC2  1  MOL  B5  5  0.0  36.0
  6  TC2  1  MOL  B6  6  0.0  36.0

[ bonds ]
; i  j  funct  r0[nm]  k[kJ/mol/nm2]
  1  2  1  0.5385  5140.8
  2  3  1  0.5483  4177.9
  3  4  1  0.5426  2302.4
  4  5  1  0.4231  2901.5
  5  6  1  0.3892  2563.2

[ angles ]
; i  j  k  funct  theta0[deg]  k[kJ/mol/rad2]
  1  2  3  2  127.3  97.0
  2  3  4  2  124.7  30.4
  3  4  5  2  138.7  81.8
  4  5  6  2  113.3  85.8

