; Synthetic MARTINI 3 molecule: LIP037
; Generated by make_sample_data.py for pipeline testing

[ moleculetype ]
; name  nrexcl
LIP037  1

[ atoms ]
; nr  type  resnr residue atom cgnr charge mass
  1  TP1  1  MOL  B1  1  0.0  36.0
  2  SP1  1  MOL  B2  2  0.0  54.0
  3  SC3  1  MOL  B3  3  0.0  54.0
  4  SC2  1  MOL  B4  4  0.0  54.0
  5  SC2  1  MOL  B5  5  0.0  54.0

[ bonds ]
; i  j  funct  r0[nm]  k[kJ/mol/nm2]
  1  2  1  0.4873  2278.6
  2  3  1  0.3850  5422.9
  3  4  1  0.3954  5348.2
  4  5  1  0.4059  4571.5

[ angles ]
; i  j  k  funct  theta0[deg]  k[kJ/mol/rad2]
  1  2  3  2  131.6  68.8
  2  3  4  2  108.3  37.3
  3  4  5  2  92.0  46.9

