; Synthetic MARTINI 3 molecule: LIP056
; Generated by make_sample_data.py for pipeline testing

[ moleculetype ]
; name  nrexcl
LIP056  1

[ atoms ]
; nr  type  resnr residue atom cgnr charge mass
  1  Q1  1  MOL  B1  1  -0.5  72.0
  2  SC3  1  MOL  B2  2  0.0  54.0
  3  C2  1  MOL  B3  3  0.0  72.0
  4  C3  1  MOL  B4  4  0.0  72.0
  5  C1  1  MOL  B5  5  0.0  72.0

[ bonds ]
; i  j  funct  r0[nm]  k[kJ/mol/nm2]
  1  2  1  0.3840  2779.9
  2  3  1  0.5281  4999.9
  3  4  1  0.5316  5034.9
  4  5  1  0.4694  4616.5

[ angles ]
; i  j  k  funct  theta0[deg]  k[kJ/mol/rad2]
  1  2  3  2  143.3  75.8
  2  3  4  2  127.9  31.4
  3  4  5  2  118.4  90.2

