; Synthetic MARTINI 3 molecule: LIP032
; Generated by make_sample_data.py for pipeline testing

[ moleculetype ]
; name  nrexcl
LIP032  1

[ atoms ]
; nr  type  resnr residue atom cgnr charge mass
  1  P1  1  MOL  B1  1  0.0  72.0
  2  TP2  1  MOL  B2  2  0.0  36.0
  3  SC1  1  MOL  B3  3  0.0  54.0
  4  C3  1  MOL  B4  4  0.0  72.0
  5  TC1  1  MOL  B5  5  0.0  36.0

[ bonds ]
; i  j  funct  r0[nm]  k[kJ/mol/nm2]
  1  2  1  0.4991  2809.9
  2  3  1  0.5416  3471.8
  3  4  1  0.4154  2595.6
  4  5  1  0.4111  5506.6

[ angles ]
; i  j  k  funct  theta0[deg]  k[kJ/mol/rad2]
  1  2  3  2  149.8  53.7
  2  3  4  2  116.9  90.8
  3  4  5  2  143.2  77.3

