; Synthetic MARTINI 3 molecule: LIP085
; Generated by make_sample_data.py for pipeline testing

[ moleculetype ]
; name  nrexcl
LIP085  1

[ atoms ]
; nr  type  resnr residue atom cgnr charge mass
  1  P5  1  MOL  B1  1  0.0  72.0
  2  TP2  1  MOL  B2  2  0.0  36.0
  3  P1  1  MOL  B3  3  0.0  72.0
  4  C2  1  MOL  B4  4  0.0  72.0
  5  SC3  1  MOL  B5  5  0.0  54.0
  6  C3  1  MOL  B6  6  0.0  72.0
  7  SC1  1  MOL  B7  7  0.0  54.0
  8  SC2  1  MOL  B8  8  0.0  54.0
  9  SC3  1  MOL  B9  9  0.0  54.0

[ bonds ]
; i  j  funct  r0[nm]  k[kJ/mol/nm2]
  1  2  1  0.4348  3368.5
  2  3  1  0.5423  3779.4
  3  4  1  0.4478  3406.6
  4  5  1  0.5319  4275.8
  5  6  1  0.5024  5247.2
  6  7  1  0.4184  3734.8
  7  8  1  0.5197  3453.0
  8  9  1  0.5088  5764.0

[ angles ]
; i  j  k  funct  theta0[deg]  k[kJ/mol/rad2]
  1  2  3  2  127.4  92.9
  2  3  4  2  138.3  103.7
  3  4  5  2  113.7  20.4
  4  5  6  2  114.1  85.7
  5  6  7  2  117.0  93.6
  6  7  8  2  111.4  81.6
  7  8  9  2  101.2  93.7

