; Synthetic MARTINI 3 molecule: LIP066
; Generated by make_sample_data.py for pipeline testing

[ moleculetype ]
; name  nrexcl
LIP066  1

[ atoms ]
; nr  type  resnr residue atom cgnr charge mass
  1  P3  1  MOL  B1  1  0.0  72.0
  2  C3  1  MOL  B2  2  0.0  72.0
  3  C2  1  MOL  B3  3  0.0  72.0
  4  SC1  1  MOL  B4  4  0.0  54.0
  5  C2  1  MOL  B5  5  0.0  72.0

[ bonds ]
; i  j  funct  r0[nm]  k[kJ/mol/nm2]
  1  2  1  0.4505  4925.9
  2  3  1  0.5416  2881.8
  3  4  1  0.5272  5737.2
  4  5  1  0.5333  4541.7

[ angles ]
; i  j  k  funct  theta0[deg]  k[kJ/mol/rad2]
  1  2  3  2  127.8  57.3
  2  3  4  2  135.1  70.8
  3  4  5  2  130.6  60.0

