; Synthetic MARTINI 3 molecule: LIP029
; Generated by make_sample_data.py for pipeline testing

[ moleculetype ]
; name  nrexcl
LIP029  1

[ atoms ]
; nr  type  resnr residue atom cgnr charge mass
  1  Q1  1  MOL  B1  1  -0.5  72.0
  2  Qa  1  MOL  B2  2  -1.0  72.0
  3  SC1  1  MOL  B3  3  0.0  54.0
  4  TC2  1  MOL  B4  4  0.0  36.0
  5  C1  1  MOL  B5  5  0.0  72.0
  6  TC2  1  MOL  B6  6  0.0  36.0
  7  C4  1  MOL  B7  7  0.0  72.0

[ bonds ]
; i  j  funct  r0[nm]  k[kJ/mol/nm2]
  1  2  1  0.5021  2548.4
  2  3  1  0.4571  2860.8
  3  4  1  0.3524  2964.8
  4  5  1  0.5452  5206.1
  5  6  1  0.5419  3951.4
  6  7  1  0.3719  4191.8

[ angles ]
; i  j  k  funct  theta0[deg]  k[kJ/mol/rad2]
  1  2  3  2  117.3  103.7
  2  3  4  2  95.9  66.3
  3  4  5  2  99.0  49.1
  4  5  6  2  134.2  65.0
  5  6  7  2  112.6  56.4

