; Synthetic MARTINI 3 molecule: LIP011
; Generated by make_sample_data.py for pipeline testing

[ moleculetype ]
; name  nrexcl
LIP011  1

[ atoms ]
; nr  type  resnr residue atom cgnr charge mass
  1  Qa  1  MOL  B1  1  -1.0  72.0
  2  Qa  1  MOL  B2  2  -1.0  72.0
  3  TC2  1  MOL  B3  3  0.0  36.0
  4  TC1  1  MOL  B4  4  0.0  36.0
  5  C3  1  MOL  B5  5  0.0  72.0
  6  C4  1  MOL  B6  6  0.0  72.0
  7  SC1  1  MOL  B7  7  0.0  54.0
  8  C4  1  MOL  B8  8  0.0  72.0

[ bonds ]
; i  j  funct  r0[nm]  k[kJ/mol/nm2]
  1  2  1  0.4565  2969.9
  2  3  1  0.4038  3509.1
  3  4  1  0.3540  3288.3
  4  5  1  0.3923  3310.0
  5  6  1  0.3740  5562.1
  6  7  1  0.4687  4716.4
  7  8  1  0.5078  3993.8

[ angles ]
; i  j  k  funct  theta0[deg]  k[kJ/mol/rad2]
  1  2  3  2  95.2  71.4
  2  3  4  2  125.2  93.3
  3  4  5  2  115.9  28.4
  4  5  6  2  107.0  53.1
  5  6  7  2  128.8  74.9
  6  7  8  2  111.4  118.6

