; Synthetic MARTINI 3 molecule: LIP053
; Generated by make_sample_data.py for pipeline testing

[ moleculetype ]
; name  nrexcl
LIP053  1

[ atoms ]
; nr  type  resnr residue atom cgnr charge mass
  1  P3  1  MOL  B1  1  0.0  72.0
  2  SC1  1  MOL  B2  2  0.0  54.0
  3  TC2  1  MOL  B3  3  0.0  36.0
  4  SC2  1  MOL  B4  4  0.0  54.0

[ bonds ]
; i  j  funct  r0[nm]  k[kJ/mol/nm2]
  1  2  1  0.5365  4177.0
  2  3  1  0.3901  4467.1
  3  4  1  0.4986  4951.7

[ angles ]
; i  j  k  funct  theta0[deg]  k[kJ/mol/rad2]
  1  2  3  2  121.3  22.2
  2  3  4  2  112.3  111.7

