; Synthetic MARTINI 3 molecule: LIP079
; Generated by make_sample_data.py for pipeline testing

[ moleculetype ]
; name  nrexcl
LIP079  1

[ atoms ]
; nr  type  resnr residue atom cgnr charge mass
  1  P4  1  MOL  B1  1  0.0  72.0
  2  C3  1  MOL  B2  2  0.0  72.0
  3  C4  1  MOL  B3  3  0.0  72.0
  4  TC1  1  MOL  B4  4  0.0  36.0

[ bonds ]
; i  j  funct  r0[nm]  k[kJ/mol/nm2]
  1  2  1  0.4500  4699.6
  2  3  1  0.3978  5032.2
  3  4  1  0.5020  3250.4

[ angles ]
; i  j  k  funct  theta0[deg]  k[kJ/mol/rad2]
  1  2  3  2  114.6  37.0
  2  3  4  2  148.6  82.8

