; Synthetic MARTINI 3 molecule: LIP035
; Generated by make_sample_data.py for pipeline testing

[ moleculetype ]
; name  nrexcl
LIP035  1

[ atoms ]
; nr  type  resnr residue atom cgnr charge mass
  1  P2  1  MOL  B1  1  0.0  72.0
  2  Q2  1  MOL  B2  2  0.5  72.0
  3  C4  1  MOL  B3  3  0.0  72.0
  4  SC1  1  MOL  B4  4  0.0  54.0
  5  C4  1  MOL  B5  5  0.0  72.0
  6  SC3  1  MOL  B6  6  0.0  54.0
  7  C2  1  MOL  B7  7  0.0  72.0
  8  TC2  1  MOL  B8  8  0.0  36.0

[ bonds ]
; i  j  funct  r0[nm]  k[kJ/mol/nm2]
  1  2  1  0.4587  2326.9
  2  3  1  0.4417  3938.8
  3  4  1  0.3832  5782.8
  4  5  1  0.5200  4676.1
  5  6  1  0.4425  3647.1
  6  7  1  0.4802  4181.7
  7  8  1  0.3625  4050.0

[ angles ]
; i  j  k  funct  theta0[deg]  k[kJ/mol/rad2]
  1  2  3  2  138.4  63.2
  2  3  4  2  93.1  97.6
  3  4  5  2  102.1  42.2
  4  5  6  2  99.9  49.7
  5  6  7  2  135.4  69.5
  6  7  8  2  102.3  107.2

