; Synthetic MARTINI 3 molecule: LIP076
; Generated by make_sample_data.py for pipeline testing

[ moleculetype ]
; name  nrexcl
LIP076  1

[ atoms ]
; nr  type  resnr residue atom cgnr charge mass
  1  P3  1  MOL  B1  1  0.0  72.0
  2  TC1  1  MOL  B2  2  0.0  36.0
  3  C1  1  MOL  B3  3  0.0  72.0
  4  C3  1  MOL  B4  4  0.0  72.0

[ bonds ]
; i  j  funct  r0[nm]  k[kJ/mol/nm2]
  1  2  1  0.4450  5689.7
  2  3  1  0.3645  3122.4
  3  4  1  0.4200  5129.7

[ angles ]
; i  j  k  funct  theta0[deg]  k[kJ/mol/rad2]
  1  2  3  2  149.6  40.3
  2  3  4  2  142.5  102.2

