; Synthetic MARTINI 3 molecule: LIP084
; Generated by make_sample_data.py for pipeline testing

[ moleculetype ]
; name  nrexcl
LIP084  1

[ atoms ]
; nr  type  resnr residue atom cgnr charge mass
  1  Q1  1  MOL  B1  1  -0.5  72.0
  2  SP2  1  MOL  B2  2  0.0  54.0
  3  C4  1  MOL  B3  3  0.0  72.0
  4  C3  1  MOL  B4  4  0.0  72.0
  5  SC2  1  MOL  B5  5  0.0  54.0
  6  SC2  1  MOL  B6  6  0.0  54.0
  7  C4  1  MOL  B7  7  0.0  72.0
  8  C3  1  MOL  B8  8  0.0  72.0

[ bonds ]
; i  j  funct  r0[nm]  k[kJ/mol/nm2]
  1  2  1  0.5396  2564.8
  2  3  1  0.5027  2434.7
  3  4  1  0.5463  3526.5
  4  5  1  0.5050  3370.4
  5  6  1  0.4755  2768.1
  6  7  1  0.3792  5752.3
  7  8  1  0.5335  5549.9

[ angles ]
; i  j  k  funct  theta0[deg]  k[kJ/mol/rad2]
  1  2  3  2  127.5  99.9
  2  3  4  2  94.1  50.2
  3  4  5  2  108.8  81.7
  4  5  6  2  111.4  30.6
  5  6  7  2  125.8  100.5
  6  7  8  2  112.9  28.9

