; Synthetic MARTINI 3 molecule: LIP002
; Generated by make_sample_data.py for pipeline testing

[ moleculetype ]
; name  nrexcl
LIP002  1

[ atoms ]
; nr  type  resnr residue atom cgnr charge mass
  1  Qd  1  MOL  B1  1  1.0  72.0
  2  P1  1  MOL  B2  2  0.0  72.0
  3  TC1  1  MOL  B3  3  0.0  36.0
  4  TC2  1  MOL  B4  4  0.0  36.0
  5  C2  1  MOL  B5  5  0.0  72.0
  6  SC3  1  MOL  B6  6  0.0  54.0
  7  C2  1  MOL  B7  7  0.0  72.0

[ bonds ]
; i  j  funct  r0[nm]  k[kJ/mol/nm2]
  1  2  1  0.3563  4545.6
  2  3  1  0.4129  4034.3
  3  4  1  0.5315  2997.2
  4  5  1  0.4321  5022.2
  5  6  1  0.3958  2307.9
  6  7  1  0.4080  2644.9

[ angles ]
; i  j  k  funct  theta0[deg]  k[kJ/mol/rad2]
  1  2  3  2  145.8  99.9
  2  3  4  2  128.0  106.5
  3  4  5  2  138.2  34.6
  4  5  6  2  143.6  71.6
  5  6  7  2  138.4  109.1

