; Synthetic MARTINI 3 molecule: LIP060
; Generated by make_sample_data.py for pipeline testing

[ moleculetype ]
; name  nrexcl
LIP060  1

[ atoms ]
; nr  type  resnr residue atom cgnr charge mass
  1  SP2  1  MOL  B1  1  0.0  54.0
  2  P2  1  MOL  B2  2  0.0  72.0
  3  C4  1  MOL  B3  3  0.0  72.0
  4  SC3  1  MOL  B4  4  0.0  54.0
  5  SC3  1  MOL  B5  5  0.0  54.0

[ bonds ]
; i  j  funct  r0[nm]  k[kJ/mol/nm2]
  1  2  1  0.4661  4022.0
  2  3  1  0.3788  4496.0
  3  4  1  0.4047  3951.3
  4  5  1  0.3665  3838.3

[ angles ]
; i  j  k  funct  theta0[deg]  k[kJ/mol/rad2]
  1  2  3  2  108.4  101.4
  2  3  4  2  93.4  59.0
  3  4  5  2  117.5  91.1

