; Synthetic MARTINI 3 molecule: LIP093
; Generated by make_sample_data.py for pipeline testing

[ moleculetype ]
; name  nrexcl
LIP093  1

[ atoms ]
; nr  type  resnr residue atom cgnr charge mass
  1  P1  1  MOL  B1  1  0.0  72.0
  2  P5  1  MOL  B2  2  0.0  72.0
  3  C2  1  MOL  B3  3  0.0  72.0
  4  SC2  1  MOL  B4  4  0.0  54.0
  5  SC1  1  MOL  B5  5  0.0  54.0

[ bonds ]
; i  j  funct  r0[nm]  k[kJ/mol/nm2]
  1  2  1  0.5467  2966.4
  2  3  1  0.4863  4863.9
  3  4  1  0.4715  2354.3
  4  5  1  0.4854  2256.4

[ angles ]
; i  j  k  funct  theta0[deg]  k[kJ/mol/rad2]
  1  2  3  2  125.8  92.7
  2  3  4  2  102.7  103.4
  3  4  5  2  91.8  103.6

