; Synthetic MARTINI 3 molecule: LIP030
; Generated by make_sample_data.py for pipeline testing

[ moleculetype ]
; name  nrexcl
LIP030  1

[ atoms ]
; nr  type  resnr residue atom cgnr charge mass
  1  P5  1  MOL  B1  1  0.0  72.0
  2  Q2  1  MOL  B2  2  0.5  72.0
  3  Q1  1  MOL  B3  3  -0.5  72.0
  4  SC2  1  MOL  B4  4  0.0  54.0
  5  TC1  1  MOL  B5  5  0.0  36.0
  6  TC2  1  MOL  B6  6  0.0  36.0
  7  TC2  1  MOL  B7  7  0.0  36.0

[ bonds ]
; i  j  funct  r0[nm]  k[kJ/mol/nm2]
  1  2  1  0.3643  2048.4
  2  3  1  0.5413  4950.0
  3  4  1  0.4207  3186.1
  4  5  1  0.4199  5098.6
  5  6  1  0.4823  2740.8
  6  7  1  0.3848  2393.6

[ angles ]
; i  j  k  funct  theta0[deg]  k[kJ/mol/rad2]
  1  2  3  2  129.6  95.3
  2  3  4  2  105.9  17.2
  3  4  5  2  94.9  116.6
  4  5  6  2  107.7  95.8
  5  6  7  2  127.5  55.1

