; Synthetic MARTINI 3 molecule: LIP087
; Generated by make_sample_data.py for pipeline testing

[ moleculetype ]
; name  nrexcl
LIP087  1

[ atoms ]
; nr  type  resnr residue atom cgnr charge mass
  1  Q1  1  MOL  B1  1  -0.5  72.0
  2  SC1  1  MOL  B2  2  0.0  54.0
  3  SC2  1  MOL  B3  3  0.0  54.0
  4  TC2  1  MOL  B4  4  0.0  36.0
  5  TC2  1  MOL  B5  5  0.0  36.0
  6  TC2  1  MOL  B6  6  0.0  36.0
  7  TC1  1  MOL  B7  7  0.0  36.0

[ bonds ]
; i  j  funct  r0[nm]  k[kJ/mol/nm2]
  1  2  1  0.5445  4072.0
  2  3  1  0.4728  2946.4
  3  4  1  0.4467  3716.6
  4  5  1  0.3650  2424.6
  5  6  1  0.5175  2959.3
  6  7  1  0.3890  4019.6

[ angles ]
; i  j  k  funct  theta0[deg]  k[kJ/mol/rad2]
  1  2  3  2  136.1  21.5
  2  3  4  2  124.6  27.5
  3  4  5  2  92.2  20.5
  4  5  6  2  140.0  27.4
  5  6  7  2  92.7  61.0

