; Synthetic MARTINI 3 molecule: LIP043
; Generated by make_sample_data.py for pipeline testing

[ moleculetype ]
; name  nrexcl
LIP043  1

[ atoms ]
; nr  type  resnr residue atom cgnr charge mass
  1  P4  1  MOL  B1  1  0.0  72.0
  2  SC1  1  MOL  B2  2  0.0  54.0
  3  C4  1  MOL  B3  3  0.0  72.0
  4  C2  1  MOL  B4  4  0.0  72.0

[ bonds ]
; i  j  funct  r0[nm]  k[kJ/mol/nm2]
  1  2  1  0.5194  5572.4
  2  3  1  0.3625  5533.9
  3  4  1  0.4397  4041.7

[ angles ]
; i  j  k  funct  theta0[deg]  k[kJ/mol/rad2]
  1  2  3  2  127.6  112.3
  2  3  4  2  91.1  65.1

