; Synthetic MARTINI 3 molecule: LIP014
; Generated by make_sample_data.py for pipeline testing

[ moleculetype ]
; name  nrexcl
LIP014  1

[ atoms ]
; nr  type  resnr residue atom cgnr charge mass
  1  Q2  1  MOL  B1  1  0.5  72.0
  2  TP2  1  MOL  B2  2  0.0  36.0
  3  SC1  1  MOL  B3  3  0.0  54.0
  4  C2  1  MOL  B4  4  0.0  72.0
  5  C3  1  MOL  B5  5  0.0  72.0

[ bonds ]
; i  j  funct  r0[nm]  k[kJ/mol/nm2]
  1  2  1  0.4512  4445.8
  2  3  1  0.3536  5488.5
  3  4  1  0.5364  4260.5
  4  5  1  0.4893  5690.0

[ angles ]
; i  j  k  funct  theta0[deg]  k[kJ/mol/rad2]
  1  2  3  2  132.4  31.0
  2  3  4  2  124.6  78.7
  3  4  5  2  115.4  92.3

