; Synthetic MARTINI 3 molecule: LIP013
; Generated by make_sample_data.py for pipeline testing

[ moleculetype ]
; name  nrexcl
LIP013  1

[ atoms ]
; nr  type  resnr residue atom cgnr charge mass
  1  TP1  1  MOL  B1  1  0.0  36.0
  2  SP1  1  MOL  B2  2  0.0  54.0
  3  Qd  1  MOL  B3  3  1.0  72.0
  4  C2  1  MOL  B4  4  0.0  72.0
  5  C1  1  MOL  B5  5  0.0  72.0
  6  TC1  1  MOL  B6  6  0.0  36.0
  7  C2  1  MOL  B7  7  0.0  72.0
  8  C2  1  MOL  B8  8  0.0  72.0

[ bonds ]
; i  j  funct  r0[nm]  k[kJ/mol/nm2]
  1  2  1  0.4218  5508.8
  2  3  1  0.4285  5266.4
  3  4  1  0.4378  3507.8
  4  5  1  0.4425  3205.5
  5  6  1  0.4995  4010.9
  6  7  1  0.3964  5598.3
  7  8  1  0.4268  4174.2

[ angles ]
; i  j  k  funct  theta0[deg]  k[kJ/mol/rad2]
  1  2  3  2  144.4  80.5
  2  3  4  2  97.0  113.7
  3  4  5  2  127.7  50.2
  4  5  6  2  98.4  98.4
  5  6  7  2  127.2  71.0
  6  7  8  2  143.6  97.8

