; Synthetic MARTINI 3 molecule: LIP025
; Generated by make_sample_data.py for pipeline testing

[ moleculetype ]
; name  nrexcl
LIP025  1

[ atoms ]
; nr  type  resnr residue atom cgnr charge mass
  1  SP1  1  MOL  B1  1  0.0  54.0
  2  SC2  1  MOL  B2  2  0.0  54.0
  3  SC3  1  MOL  B3  3  0.0  54.0
  4  SC1  1  MOL  B4  4  0.0  54.0
  5  SC3  1  MOL  B5  5  0.0  54.0
  6  SC1  1  MOL  B6  6  0.0  54.0
  7  C2  1  MOL  B7  7  0.0  72.0

[ bonds ]
; i  j  funct  r0[nm]  k[kJ/mol/nm2]
  1  2  1  0.4292  4781.9
  2  3  1  0.4277  3794.8
  3  4  1  0.3975  3493.0
  4  5  1  0.3955  2292.8
  5  6  1  0.4707  4672.9
  6  7  1  0.4739  3854.0

[ angles ]
; i  j  k  funct  theta0[deg]  k[kJ/mol/rad2]
  1  2  3  2  112.8  105.7
  2  3  4  2  121.1  65.3
  3  4  5  2  91.5  50.8
  4  5  6  2  112.8  56.9
  5  6  7  2  124.8  71.0

