; Synthetic MARTINI 3 molecule: LIP082
; Generated by make_sample_data.py for pipeline testing

[ moleculetype ]
; name  nrexcl
LIP082  1

[ atoms ]
; nr  type  resnr residue atom cgnr charge mass
  1  Q2  1  MOL  B1  1  0.5  72.0
  2  P4  1  MOL  B2  2  0.0  72.0
  3  Qd  1  MOL  B3  3  1.0  72.0
  4  SC3  1  MOL  B4  4  0.0  54.0
  5  C1  1  MOL  B5  5  0.0  72.0
  6  TC1  1  MOL  B6  6  0.0  36.0
  7  TC2  1  MOL  B7  7  0.0  36.0
  8  SC1  1  MOL  B8  8  0.0  54.0

[ bonds ]
; i  j  funct  r0[nm]  k[kJ/mol/nm2]
  1  2  1  0.4948  5715.2
  2  3  1  0.4361  2476.6
  3  4  1  0.4525  3395.3
  4  5  1  0.4250  4485.3
  5  6  1  0.4937  2442.4
  6  7  1  0.3571  5977.3
  7  8  1  0.3965  2215.3

[ angles ]
; i  j  k  funct  theta0[deg]  k[kJ/mol/rad2]
  1  2  3  2  101.4  19.1
  2  3  4  2  113.5  99.3
  3  4  5  2  110.5  61.6
  4  5  6  2  130.5  68.4
  5  6  7  2  141.7  105.9
  6  7  8  2  90.6  96.7

