; Synthetic MARTINI 3 molecule: LIP092
; Generated by make_sample_data.py for pipeline testing

[ moleculetype ]
; name  nrexcl
LIP092  1

[ atoms ]
; nr  type  resnr residue atom cgnr charge mass
  1  TP2  1  MOL  B1  1  0.0  36.0
  2  C3  1  MOL  B2  2  0.0  72.0
  3  SC3  1  MOL  B3  3  0.0  54.0
  4  TC1  1  MOL  B4  4  0.0  36.0

[ bonds ]
; i  j  funct  r0[nm]  k[kJ/mol/nm2]
  1  2  1  0.4588  4779.9
  2  3  1  0.4530  5961.1
  3  4  1  0.4723  3483.9

[ angles ]
; i  j  k  funct  theta0[deg]  k[kJ/mol/rad2]
  1  2  3  2  136.3  32.9
  2  3  4  2  113.1  51.4

