; Synthetic MARTINI 3 molecule: LIP067
; Generated by make_sample_data.py for pipeline testing

[ moleculetype ]
; name  nrexcl
LIP067  1

[ atoms ]
; nr  type  resnr residue atom cgnr charge mass
  1  P1  1  MOL  B1  1  0.0  72.0
  2  SC3  1  MOL  B2  2  0.0  54.0
  3  SC2  1  MOL  B3  3  0.0  54.0
  4  C4  1  MOL  B4  4  0.0  72.0
  5  TC1  1  MOL  B5  5  0.0  36.0
  6  SC1  1  MOL  B6  6  0.0  54.0
  7  TC1  1  MOL  B7  7  0.0  36.0

[ bonds ]
; i  j  funct  r0[nm]  k[kJ/mol/nm2]
  1  2  1  0.5431  3580.6
  2  3  1  0.4957  3383.2
  3  4  1  0.4842  5221.7
  4  5  1  0.5394  3600.8
  5  6  1  0.5067  3063.7
  6  7  1  0.5481  2103.1

[ angles ]
; i  j  k  funct  theta0[deg]  k[kJ/mol/rad2]
  1  2  3  2  126.2  84.2
  2  3  4  2  131.3  27.6
  3  4  5  2  146.3  34.0
  4  5  6  2  127.4  38.4
  5  6  7  2  108.4  72.4

