; Synthetic MARTINI 3 molecule: LIP006
; Generated by make_sample_data.py for pipeline testing

[ moleculetype ]
; name  nrexcl
LIP006  1

[ atoms ]
; nr  type  resnr residue atom cgnr charge mass
  1  TP2  1  MOL  B1  1  0.0  36.0
  2  P2  1  MOL  B2  2  0.0  72.0
  3  SC1  1  MOL  B3  3  0.0  54.0
  4  TC2  1  MOL  B4  4  0.0  36.0
  5  C4  1  MOL  B5  5  0.0  72.0
  6  C3  1  MOL  B6  6  0.0  72.0

[ bonds ]
; i  j  funct  r0[nm]  k[kJ/mol/nm2]
  1  2  1  0.4820  3119.7
  2  3  1  0.5410  4951.6
  3  4  1  0.4609  4446.9
  4  5  1  0.4339  2990.9
  5  6  1  0.4212  5031.4

[ angles ]
; i  j  k  funct  theta0[deg]  k[kJ/mol/rad2]
  1  2  3  2  90.9  27.2
  2  3  4  2  92.8  19.3
  3  4  5  2  141.3  88.9
  4  5  6  2  118.5  25.3

