; Synthetic MARTINI 3 molecule: LIP063
; Generated by make_sample_data.py for pipeline testing

[ moleculetype ]
; name  nrexcl
LIP063  1

[ atoms ]
; nr  type  resnr residue atom cgnr charge mass
  1  Qd  1  MOL  B1  1  1.0  72.0
  2  SP1  1  MOL  B2  2  0.0  54.0
  3  C2  1  MOL  B3  3  0.0  72.0
  4  TC2  1  MOL  B4  4  0.0  36.0
  5  C3  1  MOL  B5  5  0.0  72.0

[ bonds ]
; i  j  funct  r0[nm]  k[kJ/mol/nm2]
  1  2  1  0.4393  4006.1
  2  3  1  0.3993  3883.8
  3  4  1  0.4824  5004.7
  4  5  1  0.5008  4311.6

[ angles ]
; i  j  k  funct  theta0[deg]  k[kJ/mol/rad2]
  1  2  3  2  144.3  100.8
  2  3  4  2  135.4  20.8
  3  4  5  2  90.4  37.3

