; Synthetic MARTINI 3 molecule: LIP057
; Generated by make_sample_data.py for pipeline testing

[ moleculetype ]
; name  nrexcl
LIP057  1

[ atoms ]
; nr  type  resnr residue atom cgnr charge mass
  1  P1  1  MOL  B1  1  0.0  72.0
  2  P3  1  MOL  B2  2  0.0  72.0
  3  C3  1  MOL  B3  3  0.0  72.0
  4  C1  1  MOL  B4  4  0.0  72.0
  5  C2  1  MOL  B5  5  0.0  72.0

[ bonds ]
; i  j  funct  r0[nm]  k[kJ/mol/nm2]
  1  2  1  0.3937  4381.2
  2  3  1  0.4029  4647.9
  3  4  1  0.5130  5112.1
  4  5  1  0.5022  2750.9

[ angles ]
; i  j  k  funct  theta0[deg]  k[kJ/mol/rad2]
  1  2  3  2  95.3  88.4
  2  3  4  2  112.1  60.4
  3  4  5  2  91.9  42.3

