; Synthetic MARTINI 3 molecule: LIP024
; Generated by make_sample_data.py for pipeline testing

[ moleculetype ]
; name  nrexcl
LIP024  1

[ atoms ]
; nr  type  resnr residue atom cgnr charge mass
  1  P4  1  MOL  B1  1  0.0  72.0
  2  SC1  1  MOL  B2  2  0.0  54.0
  3  SC3  1  MOL  B3  3  0.0  54.0
  4  TC1  1  MOL  B4  4  0.0  36.0
  5  C1  1  MOL  B5  5  0.0  72.0
  6  SC3  1  MOL  B6  6  0.0  54.0
  7  SC2  1  MOL  B7  7  0.0  54.0

[ bonds ]
; i  j  funct  r0[nm]  k[kJ/mol/nm2]
  1  2  1  0.4132  4028.9
  2  3  1  0.3583  2593.4
  3  4  1  0.5473  5860.5
  4  5  1  0.3510  5807.2
  5  6  1  0.4778  5471.7
  6  7  1  0.4409  4062.4

[ angles ]
; i  j  k  funct  theta0[deg]  k[kJ/mol/rad2]
  1  2  3  2  119.3  85.0
  2  3  4  2  98.4  18.1
  3  4  5  2  108.5  89.0
  4  5  6  2  102.1  85.7
  5  6  7  2  148.2  24.9

