; Synthetic MARTINI 3 molecule: LIP081
; Generated by make_sample_data.py for pipeline testing

[ moleculetype ]
; name  nrexcl
LIP081  1

[ atoms ]
; nr  type  resnr residue atom cgnr charge mass
  1  TP2  1  MOL  B1  1  0.0  36.0
  2  SC1  1  MOL  B2  2  0.0  54.0
  3  C2  1  MOL  B3  3  0.0  72.0
  4  SC1  1  MOL  B4  4  0.0  54.0
  5  C4  1  MOL  B5  5  0.0  72.0
  6  TC2  1  MOL  B6  6  0.0  36.0

[ bonds ]
; i  j  funct  r0[nm]  k[kJ/mol/nm2]
  1  2  1  0.4858  4525.5
  2  3  1  0.4041  2995.2
  3  4  1  0.5384  3193.1
  4  5  1  0.5051  3572.5
  5  6  1  0.3779  2042.9

[ angles ]
; i  j  k  funct  theta0[deg]  k[kJ/mol/rad2]
  1  2  3  2  122.7  117.5
  2  3  4  2  112.1  52.5
  3  4  5  2  110.6  69.7
  4  5  6  2  116.4  107.4

