; Synthetic MARTINI 3 molecule: LIP046
; Generated by make_sample_data.py for pipeline testing

[ moleculetype ]
; name  nrexcl
LIP046  1

[ atoms ]
; nr  type  resnr residue atom cgnr charge mass
  1  Q1  1  MOL  B1  1  -0.5  72.0
  2  Qd  1  MOL  B2  2  1.0  72.0
  3  SC2  1  MOL  B3  3  0.0  54.0
  4  C4  1  MOL  B4  4  0.0  72.0
  5  C4  1  MOL  B5  5  0.0  72.0
  6  SC1  1  MOL  B6  6  0.0  54.0

[ bonds ]
; i  j  funct  r0[nm]  k[kJ/mol/nm2]
  1  2  1  0.4486  3617.2
  2  3  1  0.4562  4380.5
  3  4  1  0.3520  3856.4
  4  5  1  0.5427  4076.1
  5  6  1  0.4855  3247.5

[ angles ]
; i  j  k  funct  theta0[deg]  k[kJ/mol/rad2]
  1  2  3  2  136.4  96.2
  2  3  4  2  121.3  117.5
  3  4  5  2  97.5  16.8
  4  5  6  2  136.2  99.8

