; Synthetic MARTINI 3 molecule: LIP049
; Generated by make_sample_data.py for pipeline testing

[ moleculetype ]
; name  nrexcl
LIP049  1

[ atoms ]
; nr  type  resnr residue atom cgnr charge mass
  1  TP1  1  MOL  B1  1  0.0  36.0
  2  C2  1  MOL  B2  2  0.0  72.0
  3  C2  1  MOL  B3  3  0.0  72.0
  4  C4  1  MOL  B4  4  0.0  72.0
  5  TC2  1  MOL  B5  5  0.0  36.0
  6  C3  1  MOL  B6  6  0.0  72.0

[ bonds ]
; i  j  funct  r0[nm]  k[kJ/mol/nm2]
  1  2  1  0.4533  5035.1
  2  3  1  0.4065  3412.2
  3  4  1  0.5288  5785.8
  4  5  1  0.5285  3677.8
  5  6  1  0.5061  3905.3

[ angles ]
; i  j  k  funct  theta0[deg]  k[kJ/mol/rad2]
  1  2  3  2  119.9  36.5
  2  3  4  2  125.5  34.5
  3  4  5  2  109.9  104.8
  4  5  6  2  102.4  22.5

