; Synthetic MARTINI 3 molecule: LIP064
; Generated by make_sample_data.py for pipeline testing

[ moleculetype ]
; name  nrexcl
LIP064  1

[ atoms ]
; nr  type  resnr residue atom cgnr charge mass
  1  Qd  1  MOL  B1  1  1.0  72.0
  2  Q2  1  MOL  B2  2  0.5  72.0
  3  SC2  1  MOL  B3  3  0.0  54.0
  4  C2  1  MOL  B4  4  0.0  72.0
  5  SC2  1  MOL  B5  5  0.0  54.0

[ bonds ]
; i  j  funct  r0[nm]  k[kJ/mol/nm2]
  1  2  1  0.4817  5726.2
  2  3  1  0.5142  4266.4
  3  4  1  0.4814  5593.5
  4  5  1  0.4299  3307.2

[ angles ]
; i  j  k  funct  theta0[deg]  k[kJ/mol/rad2]
  1  2  3  2  90.6  101.8
  2  3  4  2  138.1  26.0
  3  4  5  2  124.6  63.7

