; Synthetic MARTINI 3 molecule: LIP099
; Generated by make_sample_data.py for pipeline testing

[ moleculetype ]
; name  nrexcl
LIP099  1

[ atoms ]
; nr  type  resnr residue atom cgnr charge mass
  1  SP1  1  MOL  B1  1  0.0  54.0
  2  SP2  1  MOL  B2  2  0.0  54.0
  3  TP1  1  MOL  B3  3  0.0  36.0
  4  SC3  1  MOL  B4  4  0.0  54.0
  5  SC3  1  MOL  B5  5  0.0  54.0
  6  C2  1  MOL  B6  6  0.0  72.0
  7  TC2  1  MOL  B7  7  0.0  36.0
  8  C3  1  MOL  B8  8  0.0  72.0
  9  SC2  1  MOL  B9  9  0.0  54.0

[ bonds ]
; i  j  funct  r0[nm]  k[kJ/mol/nm2]
  1  2  1  0.5471  4746.7
  2  3  1  0.3987  5194.2
  3  4  1  0.3714  5122.8
  4  5  1  0.5320  3531.3
  5  6  1  0.4761  3720.6
  6  7  1  0.4376  3241.5
  7  8  1  0.5024  5744.7
  8  9  1  0.5382  2699.1

[ angles ]
; i  j  k  funct  theta0[deg]  k[kJ/mol/rad2]
  1  2  3  2  142.5  92.4
  2  3  4  2  105.2  22.1
  3  4  5  2  106.1  110.8
  4  5  6  2  128.0  90.7
  5  6  7  2  105.4  90.5
  6  7  8  2  91.7  54.4
  7  8  9  2  127.6  30.3

