; Synthetic MARTINI 3 molecule: LIP096
; Generated by make_sample_data.py for pipeline testing

[ moleculetype ]
; name  nrexcl
LIP096  1

[ atoms ]
; nr  type  resnr residue atom cgnr charge mass
  1  P3  1  MOL  B1  1  0.0  72.0
  2  TC1  1  MOL  B2  2  0.0  36.0
  3  SC2  1  MOL  B3  3  0.0  54.0
  4  SC3  1  MOL  B4  4  0.0  54.0
  5  TC2  1  MOL  B5  5  0.0  36.0
  6  TC1  1  MOL  B6  6  0.0  36.0
  7  TC2  1  MOL  B7  7  0.0  36.0

[ bonds ]
; i  j  funct  r0[nm]  k[kJ/mol/nm2]
  1  2  1  0.3580  4390.7
  2  3  1  0.5239  5563.3
  3  4  1  0.4398  3837.2
  4  5  1  0.3654  4683.1
  5  6  1  0.5143  2978.6
  6  7  1  0.4343  5355.4

[ angles ]
; i  j  k  funct  theta0[deg]  k[kJ/mol/rad2]
  1  2  3  2  142.6  40.5
  2  3  4  2  123.0  35.2
  3  4  5  2  96.1  110.7
  4  5  6  2  139.2  94.8
  5  6  7  2  92.9  103.6

