; Synthetic MARTINI 3 molecule: LIP012
; Generated by make_sample_data.py for pipeline testing

[ moleculetype ]
; name  nrexcl
LIP012  1

[ atoms ]
; nr  type  resnr residue atom cgnr charge mass
  1  Q2  1  MOL  B1  1  0.5  72.0
  2  C4  1  MOL  B2  2  0.0  72.0
  3  SC3  1  MOL  B3  3  0.0  54.0
  4  C2  1  MOL  B4  4  0.0  72.0

[ bonds ]
; i  j  funct  r0[nm]  k[kJ/mol/nm2]
  1  2  1  0.4515  2969.6
  2  3  1  0.3730  4442.5
  3  4  1  0.4077  4325.0

[ angles ]
; i  j  k  funct  theta0[deg]  k[kJ/mol/rad2]
  1  2  3  2  99.3  65.5
  2  3  4  2  122.0  20.4

