; Synthetic MARTINI 3 molecule: LIP021
; Generated by make_sample_data.py for pipeline testing

[ moleculetype ]
; name  nrexcl
LIP021  1

[ atoms ]
; nr  type  resnr residue atom cgnr charge mass
  1  SP2  1  MOL  B1  1  0.0  54.0
  2  C4  1  MOL  B2  2  0.0  72.0
  3  SC3  1  MOL  B3  3  0.0  54.0
  4  TC1  1  MOL  B4  4  0.0  36.0
  5  SC3  1  MOL  B5  5  0.0  54.0
  6  C4  1  MOL  B6  6  0.0  72.0
  7  C3  1  MOL  B7  7  0.0  72.0

[ bonds ]
; i  j  funct  r0[nm]  k[kJ/mol/nm2]
  1  2  1  0.4339  4554.1
  2  3  1  0.4295  3096.9
  3  4  1  0.5468  3637.3
  4  5  1  0.5288  2919.8
  5  6  1  0.3926  2124.5
  6  7  1  0.4803  3474.1

[ angles ]
; i  j  k  funct  theta0[deg]  k[kJ/mol/rad2]
  1  2  3  2  141.9  64.7
  2  3  4  2  148.1  34.5
  3  4  5  2  142.1  96.5
  4  5  6  2  136.3  103.7
  5  6  7  2  135.7  80.8

