; Synthetic MARTINI 3 molecule: LIP073
; Generated by make_sample_data.py for pipeline testing

[ moleculetype ]
; name  nrexcl
LIP073  1

[ atoms ]
; nr  type  resnr residue atom cgnr charge mass
  1  P1  1  MOL  B1  1  0.0  72.0
  2  SC1  1  MOL  B2  2  0.0  54.0
  3  C4  1  MOL  B3  3  0.0  72.0
  4  C1  1  MOL  B4  4  0.0  72.0
  5  C4  1  MOL  B5  5  0.0  72.0
  6  C1  1  MOL  B6  6  0.0  72.0
  7  SC2  1  MOL  B7  7  0.0  54.0

[ bonds ]
; i  j  funct  r0[nm]  k[kJ/mol/nm2]
  1  2  1  0.4819  3768.1
  2  3  1  0.4796  2245.8
  3  4  1  0.5127  5762.0
  4  5  1  0.4798  5818.3
  5  6  1  0.3803  3909.7
  6  7  1  0.4704  4326.9

[ angles ]
; i  j  k  funct  theta0[deg]  k[kJ/mol/rad2]
  1  2  3  2  114.1  50.5
  2  3  4  2  97.6  56.1
  3  4  5  2  99.8  92.1
  4  5  6  2  102.5  21.1
  5  6  7  2  123.1  77.5

