; Synthetic MARTINI 3 molecule: LIP020
; Generated by make_sample_data.py for pipeline testing

[ moleculetype ]
; name  nrexcl
LIP020  1

[ atoms ]
; nr  type  resnr residue atom cgnr charge mass
  1  Qd  1  MOL  B1  1  1.0  72.0
  2  SC2  1  MOL  B2  2  0.0  54.0
  3  TC1  1  MOL  B3  3  0.0  36.0
  4  TC1  1  MOL  B4  4  0.0  36.0
  5  TC1  1  MOL  B5  5  0.0  36.0
  6  C4  1  MOL  B6  6  0.0  72.0
  7  TC2  1  MOL  B7  7  0.0  36.0

[ bonds ]
; i  j  funct  r0[nm]  k[kJ/mol/nm2]
  1  2  1  0.4737  5010.9
  2  3  1  0.3817  5523.5
  3  4  1  0.5244  2117.0
  4  5  1  0.5152  2515.5
  5  6  1  0.4170  4974.0
  6  7  1  0.3822  5271.9

[ angles ]
; i  j  k  funct  theta0[deg]  k[kJ/mol/rad2]
  1  2  3  2  139.9  68.3
  2  3  4  2  90.4  45.1
  3  4  5  2  127.0  118.0
  4  5  6  2  127.9  42.3
  5  6  7  2  128.0  71.7

