; Synthetic MARTINI 3 molecule: LIP027
; Generated by make_sample_data.py for pipeline testing

[ moleculetype ]
; name  nrexcl
LIP027  1

[ atoms ]
; nr  type  resnr residue atom cgnr charge mass
  1  SP1  1  MOL  B1  1  0.0  54.0
  2  TP2  1  MOL  B2  2  0.0  36.0
  3  SP2  1  MOL  B3  3  0.0  54.0
  4  SC2  1  MOL  B4  4  0.0  54.0
  5  C2  1  MOL  B5  5  0.0  72.0
  6  TC2  1  MOL  B6  6  0.0  36.0

[ bonds ]
; i  j  funct  r0[nm]  k[kJ/mol/nm2]
  1  2  1  0.4625  5830.5
  2  3  1  0.3851  4760.0
  3  4  1  0.3902  4143.3
  4  5  1  0.3693  3801.5
  5  6  1  0.5012  3390.3

[ angles ]
; i  j  k  funct  theta0[deg]  k[kJ/mol/rad2]
  1  2  3  2  129.9  98.5
  2  3  4  2  145.6  39.6
  3  4  5  2  114.0  31.0
  4  5  6  2  149.5  112.3

