; Synthetic MARTINI 3 molecule: LIP097
; Generated by make_sample_data.py for pipeline testing

[ moleculetype ]
; name  nrexcl
LIP097  1

[ atoms ]
; nr  type  resnr residue atom cgnr charge mass
  1  P3  1  MOL  B1  1  0.0  72.0
  2  SP1  1  MOL  B2  2  0.0  54.0
  3  TP2  1  MOL  B3  3  0.0  36.0
  4  TC1  1  MOL  B4  4  0.0  36.0
  5  C2  1  MOL  B5  5  0.0  72.0
  6  C4  1  MOL  B6  6  0.0  72.0
  7  TC1  1  MOL  B7  7  0.0  36.0

[ bonds ]
; i  j  funct  r0[nm]  k[kJ/mol/nm2]
  1  2  1  0.5425  4513.4
  2  3  1  0.3868  2422.6
  3  4  1  0.5126  4315.0
  4  5  1  0.4737  5125.8
  5  6  1  0.4907  5337.8
  6  7  1  0.3612  4990.1

[ angles ]
; i  j  k  funct  theta0[deg]  k[kJ/mol/rad2]
  1  2  3  2  141.1  45.0
  2  3  4  2  128.4  48.0
  3  4  5  2  147.5  18.5
  4  5  6  2  124.8  32.5
  5  6  7  2  132.7  33.5

