; Synthetic MARTINI 3 molecule: LIP051
; Generated by make_sample_data.py for pipeline testing

[ moleculetype ]
; name  nrexcl
LIP051  1

[ atoms ]
; nr  type  resnr residue atom cgnr charge mass
  1  Qd  1  MOL  B1  1  1.0  72.0
  2  C3  1  MOL  B2  2  0.0  72.0
  3  C1  1  MOL  B3  3  0.0  72.0
  4  SC1  1  MOL  B4  4  0.0  54.0
  5  C3  1  MOL  B5  5  0.0  72.0
  6  C3  1  MOL  B6  6  0.0  72.0

[ bonds ]
; i  j  funct  r0[nm]  k[kJ/mol/nm2]
  1  2  1  0.3815  3239.2
  2  3  1  0.4080  5485.7
  3  4  1  0.4845  5186.7
  4  5  1  0.4001  4499.5
  5  6  1  0.4643  5331.3

[ angles ]
; i  j  k  funct  theta0[deg]  k[kJ/mol/rad2]
  1  2  3  2  144.4  16.3
  2  3  4  2  130.4  20.4
  3  4  5  2  122.9  45.2
  4  5  6  2  108.4  52.1

