; Synthetic MARTINI 3 molecule: LIP045
; Generated by make_sample_data.py for pipeline testing

[ moleculetype ]
; name  nrexcl
LIP045  1

[ atoms ]
; nr  type  resnr residue atom cgnr charge mass
  1  Qa  1  MOL  B1  1  -1.0  72.0
  2  P5  1  MOL  B2  2  0.0  72.0
  3  TC1  1  MOL  B3  3  0.0  36.0
  4  SC1  1  MOL  B4  4  0.0  54.0
  5  C4  1  MOL  B5  5  0.0  72.0
  6  SC3  1  MOL  B6  6  0.0  54.0
  7  TC1  1  MOL  B7  7  0.0  36.0
  8  C2  1  MOL  B8  8  0.0  72.0

[ bonds ]
; i  j  funct  r0[nm]  k[kJ/mol/nm2]
  1  2  1  0.5078  5567.5
  2  3  1  0.4368  5639.8
  3  4  1  0.4255  5856.3
  4  5  1  0.3679  4748.1
  5  6  1  0.4488  3550.6
  6  7  1  0.4765  4815.4
  7  8  1  0.3509  2667.8

[ angles ]
; i  j  k  funct  theta0[deg]  k[kJ/mol/rad2]
  1  2  3  2  132.8  85.0
  2  3  4  2  148.0  94.9
  3  4  5  2  147.0  88.8
  4  5  6  2  107.9  26.1
  5  6  7  2  136.9  82.6
  6  7  8  2  92.9  52.8

