; Synthetic MARTINI 3 molecule: LIP048
; Generated by make_sample_data.py for pipeline testing

[ moleculetype ]
; name  nrexcl
LIP048  1

[ atoms ]
; nr  type  resnr residue atom cgnr charge mass
  1  P2  1  MOL  B1  1  0.0  72.0
  2  Qd  1  MOL  B2  2  1.0  72.0
  3  SC3  1  MOL  B3  3  0.0  54.0
  4  C1  1  MOL  B4  4  0.0  72.0
  5  SC1  1  MOL  B5  5  0.0  54.0
  6  TC2  1  MOL  B6  6  0.0  36.0
  7  C2  1  MOL  B7  7  0.0  72.0

[ bonds ]
; i  j  funct  r0[nm]  k[kJ/mol/nm2]
  1  2  1  0.5403  5979.3
  2  3  1  0.4923  5924.6
  3  4  1  0.4639  3038.2
  4  5  1  0.4374  4374.2
  5  6  1  0.3646  4489.4
  6  7  1  0.5462  2760.4

[ angles ]
; i  j  k  funct  theta0[deg]  k[kJ/mol/rad2]
  1  2  3  2  137.6  110.3
  2  3  4  2  146.6  115.8
  3  4  5  2  121.3  117.6
  4  5  6  2  135.4  32.0
  5  6  7  2  118.6  90.4

