; Synthetic MARTINI 3 molecule: LIP065
; Generated by make_sample_data.py for pipeline testing

[ moleculetype ]
; name  nrexcl
LIP065  1

[ atoms ]
; nr  type  resnr residue atom cgnr charge mass
  1  Q1  1  MOL  B1  1  -0.5  72.0
  2  Qa  1  MOL  B2  2  -1.0  72.0
  3  C2  1  MOL  B3  3  0.0  72.0
  4  SC1  1  MOL  B4  4  0.0  54.0
  5  TC2  1  MOL  B5  5  0.0  36.0
  6  SC3  1  MOL  B6  6  0.0  54.0

[ bonds ]
; i  j  funct  r0[nm]  k[kJ/mol/nm2]
  1  2  1  0.5111  3312.7
  2  3  1  0.3918  2338.8
  3  4  1  0.4433  3928.5
  4  5  1  0.5182  2885.0
  5  6  1  0.4262  5233.6

[ angles ]
; i  j  k  funct  theta0[deg]  k[kJ/mol/rad2]
  1  2  3  2  139.4  55.4
  2  3  4  2  117.5  46.8
  3  4  5  2  146.0  27.5
  4  5  6  2  146.0  86.8

