; Synthetic MARTINI 3 molecule: LIP017
; Generated by make_sample_data.py for pipeline testing

[ moleculetype ]
; name  nrexcl
LIP017  1

[ atoms ]
; nr  type  resnr residue atom cgnr charge mass
  1  P4  1  MOL  B1  1  0.0  72.0
  2  C4  1  MOL  B2  2  0.0  72.0
  3  TC1  1  MOL  B3  3  0.0  36.0
  4  SC2  1  MOL  B4  4  0.0  54.0
  5  SC1  1  MOL  B5  5  0.0  54.0
  6  C4  1  MOL  B6  6  0.0  72.0
  7  C4  1  MOL  B7  7  0.0  72.0

[ bonds ]
; i  j  funct  r0[nm]  k[kJ/mol/nm2]
  1  2  1  0.4633  3904.2
  2  3  1  0.4827  5747.3
  3  4  1  0.4965  2859.8
  4  5  1  0.3562  3049.1
  5  6  1  0.4690  2205.7
  6  7  1  0.4493  4387.4

[ angles ]
; i  j  k  funct  theta0[deg]  k[kJ/mol/rad2]
  1  2  3  2  110.1  95.9
  2  3  4  2  96.4  22.9
  3  4  5  2  133.7  67.0
  4  5  6  2  131.3  60.7
  5  6  7  2  104.8  101.0

