; Synthetic MARTINI 3 molecule: LIP041
; Generated by make_sample_data.py for pipeline testing

[ moleculetype ]
; name  nrexcl
LIP041  1

[ atoms ]
; nr  type  resnr residue atom cgnr charge mass
  1  TP1  1  MOL  B1  1  0.0  36.0
  2  TP2  1  MOL  B2  2  0.0  36.0
  3  TC1  1  MOL  B3  3  0.0  36.0
  4  SC2  1  MOL  B4  4  0.0  54.0
  5  SC2  1  MOL  B5  5  0.0  54.0
  6  TC2  1  MOL  B6  6  0.0  36.0

[ bonds ]
; i  j  funct  r0[nm]  k[kJ/mol/nm2]
  1  2  1  0.4846  3101.5
  2  3  1  0.4113  5155.9
  3  4  1  0.4393  5193.5
  4  5  1  0.5145  5430.2
  5  6  1  0.5333  3723.9

[ angles ]
; i  j  k  funct  theta0[deg]  k[kJ/mol/rad2]
  1  2  3  2  109.1  76.1
  2  3  4  2  112.3  78.1
  3  4  5  2  132.3  87.3
  4  5  6  2  112.5  32.5

