; Synthetic MARTINI 3 molecule: LIP075
; Generated by make_sample_data.py for pipeline testing

[ moleculetype ]
; name  nrexcl
LIP075  1

[ atoms ]
; nr  type  resnr residue atom cgnr charge mass
  1  TP1  1  MOL  B1  1  0.0  36.0
  2  Q1  1  MOL  B2  2  -0.5  72.0
  3  SC3  1  MOL  B3  3  0.0  54.0
  4  C3  1  MOL  B4  4  0.0  72.0
  5  TC1  1  MOL  B5  5  0.0  36.0
  6  SC2  1  MOL  B6  6  0.0  54.0
  7  TC1  1  MOL  B7  7  0.0  36.0

[ bonds ]
; i  j  funct  r0[nm]  k[kJ/mol/nm2]
  1  2  1  0.3624  2284.6
  2  3  1  0.4648  4264.1
  3  4  1  0.5256  4231.5
  4  5  1  0.5420  2194.8
  5  6  1  0.3696  2176.3
  6  7  1  0.3871  4165.1

[ angles ]
; i  j  k  funct  theta0[deg]  k[kJ/mol/rad2]
  1  2  3  2  128.7  19.8
  2  3  4  2  146.8  103.4
  3  4  5  2  107.8  23.1
  4  5  6  2  100.2  28.3
  5  6  7  2  97.4  69.4

