; Synthetic MARTINI 3 molecule: LIP072
; Generated by make_sample_data.py for pipeline testing

[ moleculetype ]
; name  nrexcl
LIP072  1

[ atoms ]
; nr  type  resnr residue atom cgnr charge mass
  1  SP1  1  MOL  B1  1  0.0  54.0
  2  Qd  1  MOL  B2  2  1.0  72.0
  3  C2  1  MOL  B3  3  0.0  72.0
  4  SC2  1  MOL  B4  4  0.0  54.0
  5  C4  1  MOL  B5  5  0.0  72.0

[ bonds ]
; i  j  funct  r0[nm]  k[kJ/mol/nm2]
  1  2  1  0.3583  3992.5
  2  3  1  0.4879  3009.2
  3  4  1  0.4116  4454.6
  4  5  1  0.5296  5239.7

[ angles ]
; i  j  k  funct  theta0[deg]  k[kJ/mol/rad2]
  1  2  3  2  125.0  91.7
  2  3  4  2  111.9  82.3
  3  4  5  2  118.0  34.9

