; Synthetic MARTINI 3 molecule: LIP010
; Generated by make_sample_data.py for pipeline testing

[ moleculetype ]
; name  nrexcl
LIP010  1

[ atoms ]
; nr  type  resnr residue atom cgnr charge mass
  1  Qd  1  MOL  B1  1  1.0  72.0
  2  TC2  1  MOL  B2  2  0.0  36.0
  3  C2  1  MOL  B3  3  0.0  72.0
  4  C1  1  MOL  B4  4  0.0  72.0
  5  TC2  1  MOL  B5  5  0.0  36.0
  6  C1  1  MOL  B6  6  0.0  72.0
  7  C2  1  MOL  B7  7  0.0  72.0

[ bonds ]
; i  j  funct  r0[nm]  k[kJ/mol/nm2]
  1  2  1  0.3794  5706.4
  2  3  1  0.4484  3033.0
  3  4  1  0.4418  5920.1
  4  5  1  0.4485  3315.0
  5  6  1  0.4767  2960.6
  6  7  1  0.3652  2515.5

[ angles ]
; i  j  k  funct  theta0[deg]  k[kJ/mol/rad2]
  1  2  3  2  97.7  30.9
  2  3  4  2  98.3  82.3
  3  4  5  2  100.9  51.3
  4  5  6  2  143.8  64.8
  5  6  7  2  130.1  33.1

