; Synthetic MARTINI 3 molecule: LIP009
; Generated by make_sample_data.py for pipeline testing

[ moleculetype ]
; name  nrexcl
LIP009  1

[ atoms ]
; nr  type  resnr residue atom cgnr charge mass
  1  P4  1  MOL  B1  1  0.0  72.0
  2  Qd  1  MOL  B2  2  1.0  72.0
  3  TP1  1  MOL  B3  3  0.0  36.0
  4  SC3  1  MOL  B4  4  0.0  54.0
  5  C4  1  MOL  B5  5  0.0  72.0
  6  C2  1  MOL  B6  6  0.0  72.0
  7  C2  1  MOL  B7  7  0.0  72.0
  8  SC3  1  MOL  B8  8  0.0  54.0
  9  SC2  1  MOL  B9  9  0.0  54.0

[ bonds ]
; i  j  funct  r0[nm]  k[kJ/mol/nm2]
  1  2  1  0.4427  3413.4
  2  3  1  0.4667  2310.9
  3  4  1  0.5449  5944.8
  4  5  1  0.4896  4144.4
  5  6  1  0.4119  5255.2
  6  7  1  0.4869  2650.5
  7  8  1  0.5322  5290.1
  8  9  1  0.5400  4902.9

[ angles ]
; i  j  k  funct  theta0[deg]  k[kJ/mol/rad2]
  1  2  3  2  126.8  58.9
  2  3  4  2  146.0  105.9
  3  4  5  2  92.7  17.8
  4  5  6  2  112.6  100.1
  5  6  7  2  149.2  30.8
  6  7  8  2  125.6  55.0
  7  8  9  2  148.2  103.4

