; Synthetic MARTINI 3 molecule: LIP000
; Generated by make_sample_data.py for pipeline testing

[ moleculetype ]
; name  nrexcl
LIP000  1

[ atoms ]
; nr  type  resnr residue atom cgnr charge mass
  1  P1  1  MOL  B1  1  0.0  72.0
  2  Qa  1  MOL  B2  2  -1.0  72.0
  3  P5  1  MOL  B3  3  0.0  72.0
  4  C4  1  MOL  B4  4  0.0  72.0
  5  C4  1  MOL  B5  5  0.0  72.0
  6  C3  1  MOL  B6  6  0.0  72.0

[ bonds ]
; i  j  funct  r0[nm]  k[kJ/mol/nm2]
  1  2  1  0.4249  5802.9
  2  3  1  0.4964  4394.6
  3  4  1  0.3812  2624.0
  4  5  1  0.3616  5464.7
  5  6  1  0.4702  4832.3

[ angles ]
; i  j  k  funct  theta0[deg]  k[kJ/mol/rad2]
  1  2  3  2  91.2  116.8
  2  3  4  2  139.9  37.3
  3  4  5  2  100.9  34.3
  4  5  6  2  108.3  70.1

