; Synthetic MARTINI 3 molecule: LIP090
; Generated by make_sample_data.py for pipeline testing

[ moleculetype ]
; name  nrexcl
LIP090  1

[ atoms ]
; nr  type  resnr residue atom cgnr charge mass
  1  P5  1  MOL  B1  1  0.0  72.0
  2  Qd  1  MOL  B2  2  1.0  72.0
  3  SC1  1  MOL  B3  3  0.0  54.0
  4  C4  1  MOL  B4  4  0.0  72.0
  5  TC1  1  MOL  B5  5  0.0  36.0
  6  SC2  1  MOL  B6  6  0.0  54.0

[ bonds ]
; i  j  funct  r0[nm]  k[kJ/mol/nm2]
  1  2  1  0.4414  3900.4
  2  3  1  0.4272  5866.8
  3  4  1  0.4894  2332.9
  4  5  1  0.5226  3922.2
  5  6  1  0.3638  4198.9

[ angles ]
; i  j  k  funct  theta0[deg]  k[kJ/mol/rad2]
  1  2  3  2  115.0  107.2
  2  3  4  2  102.2  101.8
  3  4  5  2  123.5  20.7
  4  5  6  2  148.3  68.8

