; Synthetic MARTINI 3 molecule: LIP058
; Generated by make_sample_data.py for pipeline testing

[ moleculetype ]
; name  nrexcl
LIP058  1

[ atoms ]
; nr  type  resnr residue atom cgnr charge mass
  1  P1  1  MOL  B1  1  0.0  72.0
  2  P4  1  MOL  B2  2  0.0  72.0
  3  SC3  1  MOL  B3  3  0.0  54.0
  4  C1  1  MOL  B4  4  0.0  72.0
  5  C1  1  MOL  B5  5  0.0  72.0
  6  C4  1  MOL  B6  6  0.0  72.0
  7  SC1  1  MOL  B7  7  0.0  54.0

[ bonds ]
; i  j  funct  r0[nm]  k[kJ/mol/nm2]
  1  2  1  0.4627  4498.5
  2  3  1  0.5229  4347.7
  3  4  1  0.4662  5962.7
  4  5  1  0.5013  3769.2
  5  6  1  0.4915  3556.9
  6  7  1  0.3958  4387.4

[ angles ]
; i  j  k  funct  theta0[deg]  k[kJ/mol/rad2]
  1  2  3  2  145.7  112.6
  2  3  4  2  110.5  70.4
  3  4  5  2  102.7  119.5
  4  5  6  2  148.9  83.2
  5  6  7  2  138.3  90.1

