; Synthetic MARTINI 3 molecule: LIP052
; Generated by make_sample_data.py for pipeline testing

[ moleculetype ]
; name  nrexcl
LIP052  1

[ atoms ]
; nr  type  resnr residue atom cgnr charge mass
  1  TP2  1  MOL  B1  1  0.0  36.0
  2  P2  1  MOL  B2  2  0.0  72.0
  3  Qa  1  MOL  B3  3  -1.0  72.0
  4  C2  1  MOL  B4  4  0.0  72.0
  5  TC1  1  MOL  B5  5  0.0  36.0
  6  TC1  1  MOL  B6  6  0.0  36.0
  7  SC2  1  MOL  B7  7  0.0  54.0
  8  TC2  1  MOL  B8  8  0.0  36.0
  9  C2  1  MOL  B9  9  0.0  72.0

[ bonds ]
; i  j  funct  r0[nm]  k[kJ/mol/nm2]
  1  2  1  0.3911  3932.2
  2  3  1  0.4037  3149.8
  3  4  1  0.4814  5874.1
  4  5  1  0.4707  2307.9
  5  6  1  0.3651  5805.7
  6  7  1  0.4095  2368.3
  7  8  1  0.4698  4494.6
  8  9  1  0.4797  3069.6

[ angles ]
; i  j  k  funct  theta0[deg]  k[kJ/mol/rad2]
  1  2  3  2  90.9  116.3
  2  3  4  2  105.1  86.0
  3  4  5  2  132.4  79.1
  4  5  6  2  108.8  43.5
  5  6  7  2  125.9  105.9
  6  7  8  2  146.8  26.1
  7  8  9  2  99.3  114.2

