; Synthetic MARTINI 3 molecule: LIP005
; Generated by make_sample_data.py for pipeline testing

[ moleculetype ]
; name  nrexcl
LIP005  1

[ atoms ]
; nr  type  resnr residue atom cgnr charge mass
  1  Q1  1  MOL  B1  1  -0.5  72.0
  2  C2  1  MOL  B2  2  0.0  72.0
  3  SC3  1  MOL  B3  3  0.0  54.0
  4  SC3  1  MOL  B4  4  0.0  54.0
  5  TC1  1  MOL  B5  5  0.0  36.0
  6  TC2  1  MOL  B6  6  0.0  36.0
  7  SC1  1  MOL  B7  7  0.0  54.0

[ bonds ]
; i  j  funct  r0[nm]  k[kJ/mol/nm2]
  1  2  1  0.4523  4006.1
  2  3  1  0.5097  4599.9
  3  4  1  0.4904  5183.2
  4  5  1  0.5280  3352.0
  5  6  1  0.4251  2375.9
  6  7  1  0.4657  2143.8

[ angles ]
; i  j  k  funct  theta0[deg]  k[kJ/mol/rad2]
  1  2  3  2  117.9  72.0
  2  3  4  2  107.2  77.0
  3  4  5  2  91.8  18.9
  4  5  6  2  139.4  52.8
  5  6  7  2  97.6  69.8

