; Synthetic MARTINI 3 molecule: LIP042
; Generated by make_sample_data.py for pipeline testing

[ moleculetype ]
; name  nrexcl
LIP042  1

[ atoms ]
; nr  type  resnr residue atom cgnr charge mass
  1  TP2  1  MOL  B1  1  0.0  36.0
  2  SC2  1  MOL  B2  2  0.0  54.0
  3  C2  1  MOL  B3  3  0.0  72.0
  4  TC1  1  MOL  B4  4  0.0  36.0
  5  C2  1  MOL  B5  5  0.0  72.0

[ bonds ]
; i  j  funct  r0[nm]  k[kJ/mol/nm2]
  1  2  1  0.4607  4166.8
  2  3  1  0.5024  5334.6
  3  4  1  0.4381  3209.3
  4  5  1  0.4019  2778.5

[ angles ]
; i  j  k  funct  theta0[deg]  k[kJ/mol/rad2]
  1  2  3  2  93.5  51.0
  2  3  4  2  106.2  116.5
  3  4  5  2  123.5  51.5

