; Synthetic MARTINI 3 molecule: LIP074
; Generated by make_sample_data.py for pipeline testing

[ moleculetype ]
; name  nrexcl
LIP074  1

[ atoms ]
; nr  type  resnr residue atom cgnr charge mass
  1  SP2  1  MOL  B1  1  0.0  54.0
  2  SP1  1  MOL  B2  2  0.0  54.0
  3  C3  1  MOL  B3  3  0.0  72.0
  4  TC1  1  MOL  B4  4  0.0  36.0
  5  TC1  1  MOL  B5  5  0.0  36.0
  6  SC2  1  MOL  B6  6  0.0  54.0
  7  TC2  1  MOL  B7  7  0.0  36.0
  8  SC1  1  MOL  B8  8  0.0  54.0

[ bonds ]
; i  j  funct  r0[nm]  k[kJ/mol/nm2]
  1  2  1  0.4061  2528.7
  2  3  1  0.4380  4575.8
  3  4  1  0.4262  2218.3
  4  5  1  0.4699  5609.6
  5  6  1  0.4266  2865.3
  6  7  1  0.4385  2193.5
  7  8  1  0.5141  5305.4

[ angles ]
; i  j  k  funct  theta0[deg]  k[kJ/mol/rad2]
  1  2  3  2  125.3  52.1
  2  3  4  2  138.0  73.2
  3  4  5  2  139.6  81.3
  4  5  6  2  137.1  77.8
  5  6  7  2  114.8  115.6
  6  7  8  2  122.5  78.5

