; Synthetic MARTINI 3 molecule: LIP028
; Generated by make_sample_data.py for pipeline testing

[ moleculetype ]
; name  nrexcl
LIP028  1

[ atoms ]
; nr  type  resnr residue atom cgnr charge mass
  1  SP2  1  MOL  B1  1  0.0  54.0
  2  Qa  1  MOL  B2  2  -1.0  72.0
  3  SC1  1  MOL  B3  3  0.0  54.0
  4  SC2  1  MOL  B4  4  0.0  54.0
  5  C4  1  MOL  B5  5  0.0  72.0
  6  C2  1  MOL  B6  6  0.0  72.0
  7  SC1  1  MOL  B7  7  0.0  54.0
  8  TC1  1  MOL  B8  8  0.0  36.0

[ bonds ]
; i  j  funct  r0[nm]  k[kJ/mol/nm2]
  1  2  1  0.3850  4010.3
  2  3  1  0.4297  2585.5
  3  4  1  0.4235  2272.7
  4  5  1  0.3552  2540.7
  5  6  1  0.5426  4198.1
  6  7  1  0.5432  3730.0
  7  8  1  0.4124  4024.6

[ angles ]
; i  j  k  funct  theta0[deg]  k[kJ/mol/rad2]
  1  2  3  2  116.4  26.1
  2  3  4  2  128.4  37.7
  3  4  5  2  127.2  83.3
  4  5  6  2  99.1  21.4
  5  6  7  2  136.8  63.3
  6  7  8  2  93.5  119.5

