; Synthetic MARTINI 3 molecule: LIP034
; Generated by make_sample_data.py for pipeline testing

[ moleculetype ]
; name  nrexcl
LIP034  1

[ atoms ]
; nr  type  resnr residue atom cgnr charge mass
  1  Q1  1  MOL  B1  1  -0.5  72.0
  2  Qa  1  MOL  B2  2  -1.0  72.0
  3  C2  1  MOL  B3  3  0.0  72.0
  4  C4  1  MOL  B4  4  0.0  72.0
  5  C4  1  MOL  B5  5  0.0  72.0

[ bonds ]
; i  j  funct  r0[nm]  k[kJ/mol/nm2]
  1  2  1  0.5031  2635.6
  2  3  1  0.4720  2541.4
  3  4  1  0.5003  4627.8
  4  5  1  0.5413  2275.8

[ angles ]
; i  j  k  funct  theta0[deg]  k[kJ/mol/rad2]
  1  2  3  2  93.4  44.6
  2  3  4  2  105.7  40.9
  3  4  5  2  144.4  41.2

