; Synthetic MARTINI 3 molecule: LIP007
; Generated by make_sample_data.py for pipeline testing

[ moleculetype ]
; name  nrexcl
LIP007  1

[ atoms ]
; nr  type  resnr residue atom cgnr charge mass
  1  P2  1  MOL  B1  1  0.0  72.0
  2  TC2  1  MOL  B2  2  0.0  36.0
  3  C3  1  MOL  B3  3  0.0  72.0
  4  C3  1  MOL  B4  4  0.0  72.0
  5  TC1  1  MOL  B5  5  0.0  36.0
  6  TC2  1  MOL  B6  6  0.0  36.0
  7  C3  1  MOL  B7  7  0.0  72.0

[ bonds ]
; i  j  funct  r0[nm]  k[kJ/mol/nm2]
  1  2  1  0.3736  4786.9
  2  3  1  0.4758  5509.9
  3  4  1  0.4970  5213.9
  4  5  1  0.4064  2709.8
  5  6  1  0.5001  5227.3
  6  7  1  0.5481  3650.5

[ angles ]
; i  j  k  funct  theta0[deg]  k[kJ/mol/rad2]
  1  2  3  2  112.3  96.5
  2  3  4  2  110.4  112.7
  3  4  5  2  141.5  60.0
  4  5  6  2  135.1  94.2
  5  6  7  2  96.2  109.8

