; Synthetic MARTINI 3 molecule: LIP062
; Generated by make_sample_data.py for pipeline testing

[ moleculetype ]
; name  nrexcl
LIP062  1

[ atoms ]
; nr  type  resnr residue atom cgnr charge mass
  1  Q1  1  MOL  B1  1  -0.5  72.0
  2  P1  1  MOL  B2  2  0.0  72.0
  3  SC2  1  MOL  B3  3  0.0  54.0
  4  TC2  1  MOL  B4  4  0.0  36.0
  5  C2  1  MOL  B5  5  0.0  72.0
  6  SC1  1  MOL  B6  6  0.0  54.0
  7  TC1  1  MOL  B7  7  0.0  36.0

[ bonds ]
; i  j  funct  r0[nm]  k[kJ/mol/nm2]
  1  2  1  0.4181  4042.3
  2  3  1  0.4730  5642.4
  3  4  1  0.4520  4005.1
  4  5  1  0.3600  2139.6
  5  6  1  0.4602  3752.7
  6  7  1  0.5178  2642.7

[ angles ]
; i  j  k  funct  theta0[deg]  k[kJ/mol/rad2]
  1  2  3  2  91.5  62.1
  2  3  4  2  104.2  20.2
  3  4  5  2  133.5  26.7
  4  5  6  2  126.5  44.5
  5  6  7  2  100.4  54.9

