; Synthetic MARTINI 3 molecule: LIP050
; Generated by make_sample_data.py for pipeline testing

[ moleculetype ]
; name  nrexcl
LIP050  1

[ atoms ]
; nr  type  resnr residue atom cgnr charge mass
  1  Q2  1  MOL  B1  1  0.5  72.0
  2  SP1  1  MOL  B2  2  0.0  54.0
  3  TC2  1  MOL  B3  3  0.0  36.0
  4  SC2  1  MOL  B4  4  0.0  54.0
  5  C1  1  MOL  B5  5  0.0  72.0

[ bonds ]
; i  j  funct  r0[nm]  k[kJ/mol/nm2]
  1  2  1  0.5008  3572.8
  2  3  1  0.4681  4644.1
  3  4  1  0.3657  4178.0
  4  5  1  0.4919  2669.3

[ angles ]
; i  j  k  funct  theta0[deg]  k[kJ/mol/rad2]
  1  2  3  2  136.8  76.3
  2  3  4  2  147.1  19.5
  3  4  5  2  105.9  78.2

