; Synthetic MARTINI 3 molecule: LIP080
; Generated by make_sample_data.py for pipeline testing

[ moleculetype ]
; name  nrexcl
LIP080  1

[ atoms ]
; nr  type  resnr residue atom cgnr charge mass
  1  TP2  1  MOL  B1  1  0.0  36.0
  2  SP2  1  MOL  B2  2  0.0  54.0
  3  Qd  1  MOL  B3  3  1.0  72.0
  4  SC3  1  MOL  B4  4  0.0  54.0
  5  C2  1  MOL  B5  5  0.0  72.0
  6  C3  1  MOL  B6  6  0.0  72.0
  7  SC2  1  MOL  B7  7  0.0  54.0
  8  C2  1  MOL  B8  8  0.0  72.0
  9  TC1  1  MOL  B9  9  0.0  36.0

[ bonds ]
; i  j  funct  r0[nm]  k[kJ/mol/nm2]
  1  2  1  0.3897  5133.5
  2  3  1  0.5319  3480.9
  3  4  1  0.5003  5588.0
  4  5  1  0.5192  2731.3
  5  6  1  0.5413  3506.7
  6  7  1  0.4178  2249.7
  7  8  1  0.4472  2436.1
  8  9  1  0.3997  3267.8

[ angles ]
; i  j  k  funct  theta0[deg]  k[kJ/mol/rad2]
  1  2  3  2  138.5  106.9
  2  3  4  2  108.1  105.2
  3  4  5  2  141.4  95.3
  4  5  6  2  98.8  87.5
  5  6  7  2  146.7  86.7
  6  7  8  2  109.9  67.6
  7  8  9  2  128.7  68.6

