; Synthetic MARTINI 3 molecule: LIP088
; Generated by make_sample_data.py for pipeline testing

[ moleculetype ]
; name  nrexcl
LIP088  1

[ atoms ]
; nr  type  resnr residue atom cgnr charge mass
  1  Q1  1  MOL  B1  1  -0.5  72.0
  2  TP1  1  MOL  B2  2  0.0  36.0
  3  P3  1  MOL  B3  3  0.0  72.0
  4  TC2  1  MOL  B4  4  0.0  36.0
  5  SC3  1  MOL  B5  5  0.0  54.0
  6  C3  1  MOL  B6  6  0.0  72.0

[ bonds ]
; i  j  funct  r0[nm]  k[kJ/mol/nm2]
  1  2  1  0.4866  5730.3
  2  3  1  0.4651  2504.5
  3  4  1  0.4663  5065.4
  4  5  1  0.4313  5519.4
  5  6  1  0.4797  5597.0

[ angles ]
; i  j  k  funct  theta0[deg]  k[kJ/mol/rad2]
  1  2  3  2  127.4  28.8
  2  3  4  2  108.6  36.2
  3  4  5  2  144.5  94.8
  4  5  6  2  130.6  46.6

