; Synthetic MARTINI 3 molecule: LIP033
; Generated by make_sample_data.py for pipeline testing

[ moleculetype ]
; name  nrexcl
LIP033  1

[ atoms ]
; nr  type  resnr residue atom cgnr charge mass
  1  SP2  1  MOL  B1  1  0.0  54.0
  2  TC1  1  MOL  B2  2  0.0  36.0
  3  C2  1  MOL  B3  3  0.0  72.0
  4  C1  1  MOL  B4  4  0.0  72.0

[ bonds ]
; i  j  funct  r0[nm]  k[kJ/mol/nm2]
  1  2  1  0.5070  4830.7
  2  3  1  0.5077  4069.1
  3  4  1  0.4380  2589.8

[ angles ]
; i  j  k  funct  theta0[deg]  k[kJ/mol/rad2]
  1  2  3  2  109.7  60.6
  2  3  4  2  95.3  38.2

