; Synthetic MARTINI 3 molecule: LIP039
; Generated by make_sample_data.py for pipeline testing

[ moleculetype ]
; name  nrexcl
LIP039  1

[ atoms ]
; nr  type  resnr residue atom cgnr charge mass
  1  Qa  1  MOL  B1  1  -1.0  72.0
  2  P3  1  MOL  B2  2  0.0  72.0
  3  P5  1  MOL  B3  3  0.0  72.0
  4  TC2  1  MOL  B4  4  0.0  36.0
  5  C1  1  MOL  B5  5  0.0  72.0
  6  TC2  1  MOL  B6  6  0.0  36.0
  7  SC3  1  MOL  B7  7  0.0  54.0

[ bonds ]
; i  j  funct  r0[nm]  k[kJ/mol/nm2]
  1  2  1  0.4683  4810.5
  2  3  1  0.3975  4049.5
  3  4  1  0.3708  3538.0
  4  5  1  0.4475  4608.9
  5  6  1  0.5401  4402.6
  6  7  1  0.4987  4025.1

[ angles ]
; i  j  k  funct  theta0[deg]  k[kJ/mol/rad2]
  1  2  3  2  128.0  22.4
  2  3  4  2  105.3  53.0
  3  4  5  2  118.3  19.8
  4  5  6  2  98.4  44.1
  5  6  7  2  148.3  49.8

