; Synthetic MARTINI 3 molecule: LIP094
; Generated by make_sample_data.py for pipeline testing

[ moleculetype ]
; name  nrexcl
LIP094  1

[ atoms ]
; nr  type  resnr residue atom cgnr charge mass
  1  P3  1  MOL  B1  1  0.0  72.0
  2  Q1  1  MOL  B2  2  -0.5  72.0
  3  Q2  1  MOL  B3  3  0.5  72.0
  4  SC3  1  MOL  B4  4  0.0  54.0
  5  SC3  1  MOL  B5  5  0.0  54.0
  6  TC2  1  MOL  B6  6  0.0  36.0
  7  SC2  1  MOL  B7  7  0.0  54.0

[ bonds ]
; i  j  funct  r0[nm]  k[kJ/mol/nm2]
  1  2  1  0.4659  5556.0
  2  3  1  0.4639  4526.9
  3  4  1  0.4537  2204.7
  4  5  1  0.3966  3968.0
  5  6  1  0.4120  2727.1
  6  7  1  0.4508  3291.2

[ angles ]
; i  j  k  funct  theta0[deg]  k[kJ/mol/rad2]
  1  2  3  2  105.5  63.7
  2  3  4  2  98.0  112.4
  3  4  5  2  142.1  89.3
  4  5  6  2  96.4  96.5
  5  6  7  2  138.5  95.6

