; Synthetic MARTINI 3 molecule: LIP089
; Generated by make_sample_data.py for pipeline testing

[ moleculetype ]
; name  nrexcl
LIP089  1

[ atoms ]
; nr  type  resnr residue atom cgnr charge mass
  1  Qa  1  MOL  B1  1  -1.0  72.0
  2  P3  1  MOL  B2  2  0.0  72.0
  3  TC2  1  MOL  B3  3  0.0  36.0
  4  C4  1  MOL  B4  4  0.0  72.0
  5  TC2  1  MOL  B5  5  0.0  36.0

[ bonds ]
; i  j  funct  r0[nm]  k[kJ/mol/nm2]
  1  2  1  0.3910  5192.0
  2  3  1  0.4977  2255.2
  3  4  1  0.4274  3131.1
  4  5  1  0.4109  5931.8

[ angles ]
; i  j  k  funct  theta0[deg]  k[kJ/mol/rad2]
  1  2  3  2  128.6  90.4
  2  3  4  2  148.6  54.6
  3  4  5  2  138.1  60.6

