; Synthetic MARTINI 3 molecule: LIP022
; Generated by make_sample_data.py for pipeline testing

[ moleculetype ]
; name  nrexcl
LIP022  1

[ atoms ]
; nr  type  resnr residue atom cgnr charge mass
  1  Qd  1  MOL  B1  1  1.0  72.0
  2  TP1  1  MOL  B2  2  0.0  36.0
  3  TC2  1  MOL  B3  3  0.0  36.0
  4  SC3  1  MOL  B4  4  0.0  54.0
  5  TC2  1  MOL  B5  5  0.0  36.0
  6  TC1  1  MOL  B6  6  0.0  36.0
  7  C3  1  MOL  B7  7  0.0  72.0

[ bonds ]
; i  j  funct  r0[nm]  k[kJ/mol/nm2]
  1  2  1  0.4890  5440.5
  2  3  1  0.5060  2158.5
  3  4  1  0.4461  2419.7
  4  5  1  0.3984  5946.7
  5  6  1  0.3785  3995.6
  6  7  1  0.4736  4809.9

[ angles ]
; i  j  k  funct  theta0[deg]  k[kJ/mol/rad2]
  1  2  3  2  123.6  16.0
  2  3  4  2  109.6  69.4
  3  4  5  2  95.3  51.8
  4  5  6  2  92.0  23.3
  5  6  7  2  113.8  28.9

