; Synthetic MARTINI 3 molecule: LIP069
; Generated by make_sample_data.py for pipeline testing

[ moleculetype ]
; name  nrexcl
LIP069  1

[ atoms ]
; nr  type  resnr residue atom cgnr charge mass
  1  P1  1  MOL  B1  1  0.0  72.0
  2  SP2  1  MOL  B2  2  0.0  54.0
  3  C1  1  MOL  B3  3  0.0  72.0
  4  SC3  1  MOL  B4  4  0.0  54.0
  5  TC2  1  MOL  B5  5  0.0  36.0
  6  SC2  1  MOL  B6  6  0.0  54.0
  7  C4  1  MOL  B7  7  0.0  72.0

[ bonds ]
; i  j  funct  r0[nm]  k[kJ/mol/nm2]
  1  2  1  0.4323  2962.1
  2  3  1  0.4845  5304.3
  3  4  1  0.4846  5297.4
  4  5  1  0.4294  2625.3
  5  6  1  0.4976  3441.9
  6  7  1  0.4843  3082.6

[ angles ]
; i  j  k  funct  theta0[deg]  k[kJ/mol/rad2]
  1  2  3  2  94.9  119.2
  2  3  4  2  99.4  118.8
  3  4  5  2  148.6  98.4
  4  5  6  2  129.6  75.7
  5  6  7  2  142.0  45.4

