; Synthetic MARTINI 3 molecule: LIP031
; Generated by make_sample_data.py for pipeline testing

[ moleculetype ]
; name  nrexcl
LIP031  1

[ atoms ]
; nr  type  resnr residue atom cgnr charge mass
  1  Qa  1  MOL  B1  1  -1.0  72.0
  2  TC1  1  MOL  B2  2  0.0  36.0
  3  SC1  1  MOL  B3  3  0.0  54.0
  4  TC2  1  MOL  B4  4  0.0  36.0
  5  SC1  1  MOL  B5  5  0.0  54.0

[ bonds ]
; i  j  funct  r0[nm]  k[kJ/mol/nm2]
  1  2  1  0.3586  2659.3
  2  3  1  0.3763  4903.9
  3  4  1  0.5136  2854.0
  4  5  1  0.4512  5362.8

[ angles ]
; i  j  k  funct  theta0[deg]  k[kJ/mol/rad2]
  1  2  3  2  134.0  71.9
  2  3  4  2  125.4  68.4
  3  4  5  2  107.9  74.3

