; Synthetic MARTINI 3 molecule: LIP086
; Generated by make_sample_data.py for pipeline testing

[ moleculetype ]
; name  nrexcl
LIP086  1

[ atoms ]
; nr  type  resnr residue atom cgnr charge mass
  1  SP1  1  MOL  B1  1  0.0  54.0
  2  SC2  1  MOL  B2  2  0.0  54.0
  3  TC2  1  MOL  B3  3  0.0  36.0
  4  SC2  1  MOL  B4  4  0.0  54.0
  5  C3  1  MOL  B5  5  0.0  72.0
  6  C4  1  MOL  B6  6  0.0  72.0
  7  TC2  1  MOL  B7  7  0.0  36.0

[ bonds ]
; i  j  funct  r0[nm]  k[kJ/mol/nm2]
  1  2  1  0.3864  3721.4
  2  3  1  0.3831  4826.4
  3  4  1  0.4571  4541.3
  4  5  1  0.3893  2847.0
  5  6  1  0.3583  3288.3
  6  7  1  0.4619  5431.7

[ angles ]
; i  j  k  funct  theta0[deg]  k[kJ/mol/rad2]
  1  2  3  2  130.0  60.7
  2  3  4  2  147.2  90.5
  3  4  5  2  145.8  70.4
  4  5  6  2  105.5  20.5
  5  6  7  2  133.6  27.7

