; Synthetic MARTINI 3 molecule: LIP083
; Generated by make_sample_data.py for pipeline testing

[ moleculetype ]
; name  nrexcl
LIP083  1

[ atoms ]
; nr  type  resnr residue atom cgnr charge mass
  1  Qa  1  MOL  B1  1  -1.0  72.0
  2  SP1  1  MOL  B2  2  0.0  54.0
  3  SC3  1  MOL  B3  3  0.0  54.0
  4  C3  1  MOL  B4  4  0.0  72.0
  5  SC2  1  MOL  B5  5  0.0  54.0
  6  TC2  1  MOL  B6  6  0.0  36.0
  7  TC2  1  MOL  B7  7  0.0  36.0

[ bonds ]
; i  j  funct  r0[nm]  k[kJ/mol/nm2]
  1  2  1  0.3748  2282.1
  2  3  1  0.5319  2760.5
  3  4  1  0.5143  4178.5
  4  5  1  0.3656  5821.8
  5  6  1  0.3994  5438.6
  6  7  1  0.3838  5415.8

[ angles ]
; i  j  k  funct  theta0[deg]  k[kJ/mol/rad2]
  1  2  3  2  90.8  68.7
  2  3  4  2  136.2  113.2
  3  4  5  2  144.6  101.1
  4  5  6  2  143.3  35.9
  5  6  7  2  107.1  45.3

