; Synthetic MARTINI 3 molecule: LIP061
; Generated by make_sample_data.py for pipeline testing

[ moleculetype ]
; name  nrexcl
LIP061  1

[ atoms ]
; nr  type  resnr residue atom cgnr charge mass
  1  Qd  1  MOL  B1  1  1.0  72.0
  2  SP1  1  MOL  B2  2  0.0  54.0
  3  SP1  1  MOL  B3  3  0.0  54.0
  4  C3  1  MOL  B4  4  0.0  72.0
  5  C4  1  MOL  B5  5  0.0  72.0
  6  C2  1  MOL  B6  6  0.0  72.0
  7  C3  1  MOL  B7  7  0.0  72.0

[ bonds ]
; i  j  funct  r0[nm]  k[kJ/mol/nm2]
  1  2  1  0.5403  2702.0
  2  3  1  0.4635  4317.3
  3  4  1  0.4479  4579.0
  4  5  1  0.3960  4210.6
  5  6  1  0.4244  4646.7
  6  7  1  0.3782  4283.5

[ angles ]
; i  j  k  funct  theta0[deg]  k[kJ/mol/rad2]
  1  2  3  2  101.1  44.3
  2  3  4  2  103.1  34.2
  3  4  5  2  139.5  45.0
  4  5  6  2  145.6  116.8
  5  6  7  2  124.3  30.0

