; Synthetic MARTINI 3 molecule: LIP004
; Generated by make_sample_data.py for pipeline testing

[ moleculetype ]
; name  nrexcl
LIP004  1

[ atoms ]
; nr  type  resnr residue atom cgnr charge mass
  1  P4  1  MOL  B1  1  0.0  72.0
  2  Q1  1  MOL  B2  2  -0.5  72.0
  3  SC2  1  MOL  B3  3  0.0  54.0
  4  C4  1  MOL  B4  4  0.0  72.0
  5  TC1  1  MOL  B5  5  0.0  36.0

[ bonds ]
; i  j  funct  r0[nm]  k[kJ/mol/nm2]
  1  2  1  0.3510  2643.2
  2  3  1  0.4597  4767.6
  3  4  1  0.4804  2897.1
  4  5  1  0.4924  2949.0

[ angles ]
; i  j  k  funct  theta0[deg]  k[kJ/mol/rad2]
  1  2  3  2  109.5  93.4
  2  3  4  2  129.0  104.2
  3  4  5  2  129.5  74.7

