; Synthetic MARTINI 3 molecule: LIP019
; Generated by make_sample_data.py for pipeline testing

[ moleculetype ]
; name  nrexcl
LIP019  1

[ atoms ]
; nr  type  resnr residue atom cgnr charge mass
  1  SP2  1  MOL  B1  1  0.0  54.0
  2  C2  1  MOL  B2  2  0.0  72.0
  3  SC2  1  MOL  B3  3  0.0  54.0
  4  SC2  1  MOL  B4  4  0.0  54.0
  5  C2  1  MOL  B5  5  0.0  72.0
  6  SC1  1  MOL  B6  6  0.0  54.0

[ bonds ]
; i  j  funct  r0[nm]  k[kJ/mol/nm2]
  1  2  1  0.4715  4050.8
  2  3  1  0.3961  2706.1
  3  4  1  0.3941  2745.8
  4  5  1  0.5059  3400.5
  5  6  1  0.3616  5876.4

[ angles ]
; i  j  k  funct  theta0[deg]  k[kJ/mol/rad2]
  1  2  3  2  143.0  112.4
  2  3  4  2  149.7  33.3
  3  4  5  2  113.8  94.6
  4  5  6  2  131.8  31.2

