; Synthetic MARTINI 3 molecule: LIP008
; Generated by make_sample_data.py for pipeline testing

[ moleculetype ]
; name  nrexcl
LIP008  1

[ atoms ]
; nr  type  resnr residue atom cgnr charge mass
  1  Q1  1  MOL  B1  1  -0.5  72.0
  2  P4  1  MOL  B2  2  0.0  72.0
  3  P1  1  MOL  B3  3  0.0  72.0
  4  C2  1  MOL  B4  4  0.0  72.0
  5  C1  1  MOL  B5  5  0.0  72.0
  6  C4  1  MOL  B6  6  0.0  72.0
  7  C2  1  MOL  B7  7  0.0  72.0

[ bonds ]
; i  j  funct  r0[nm]  k[kJ/mol/nm2]
  1  2  1  0.4249  3482.6
  2  3  1  0.5126  5789.0
  3  4  1  0.5472  5013.5
  4  5  1  0.4253  2334.0
  5  6  1  0.5054  4233.6
  6  7  1  0.4348  5625.4

[ angles ]
; i  j  k  funct  theta0[deg]  k[kJ/mol/rad2]
  1  2  3  2  96.7  66.7
  2  3  4  2  90.7  64.2
  3  4  5  2  93.4  27.5
  4  5  6  2  97.1  83.2
  5  6  7  2  134.8  76.3

