; Synthetic MARTINI 3 molecule: LIP040
; Generated by make_sample_data.py for pipeline testing

[ moleculetype ]
; name  nrexcl
LIP040  1

[ atoms ]
; nr  type  resnr residue atom cgnr charge mass
  1  TP1  1  MOL  B1  1  0.0  36.0
  2  TP2  1  MOL  B2  2  0.0  36.0
  3  C3  1  MOL  B3  3  0.0  72.0
  4  SC3  1  MOL  B4  4  0.0  54.0
  5  C4  1  MOL  B5  5  0.0  72.0
  6  TC2  1  MOL  B6  6  0.0  36.0

[ bonds ]
; i  j  funct  r0[nm]  k[kJ/mol/nm2]
  1  2  1  0.4716  3237.5
  2  3  1  0.5148  5820.2
  3  4  1  0.5142  2006.3
  4  5  1  0.4773  2204.5
  5  6  1  0.4015  2238.1

[ angles ]
; i  j  k  funct  theta0[deg]  k[kJ/mol/rad2]
  1  2  3  2  126.2  87.1
  2  3  4  2  96.9  55.3
  3  4  5  2  117.4  53.8
  4  5  6  2  97.3  59.0

