; Synthetic MARTINI 3 molecule: POL038
; Generated by make_sample_data.py for pipeline testing

[ moleculetype ]
; name  nrexcl
POL038  1

[ atoms ]
; nr  type  resnr residue atom cgnr charge mass
  1  TN2  1  MOL  M1  1  0.0  36.0
  2  N3  1  MOL  M2  2  0.0  72.0
  3  TN1  1  MOL  M3  3  0.0  36.0
  4  SN2  1  MOL  M4  4  0.0  54.0
  5  C2  1  MOL  M5  5  0.0  72.0
  6  SC3  1  MOL  M6  6  0.0  54.0
  7  TC2  1  MOL  M7  7  0.0  36.0
  8  SC1  1  MOL  M8  8  0.0  54.0

[ bonds ]
; i  j  funct  r0[nm]  k[kJ/mol/nm2]
  1  2  1  0.4986  2192.6
  2  3  1  0.5306  5409.1
  3  4  1  0.4836  4372.9
  4  5  1  0.5285  2741.3
  5  6  1  0.3658  2958.0
  6  7  1  0.5089  2138.7
  7  8  1  0.4666  5981.8

[ angles ]
; i  j  k  funct  theta0[deg]  k[kJ/mol/rad2]
  1  2  3  2  141.3  69.8
  2  3  4  2  93.8  102.3
  3  4  5  2  125.9  27.1
  4  5  6  2  95.6  110.5
  5  6  7  2  130.2  102.1
  6  7  8  2  142.7  75.0

