; Synthetic MARTINI 3 molecule: POL064
; Generated by make_sample_data.py for pipeline testing

[ moleculetype ]
; name  nrexcl
POL064  1

[ atoms ]
; nr  type  resnr residue atom cgnr charge mass
  1  N4  1  MOL  M1  1  0.0  72.0
  2  N1  1  MOL  M2  2  0.0  72.0
  3  TC2  1  MOL  M3  3  0.0  36.0
  4  SC1  1  MOL  M4  4  0.0  54.0
  5  N2  1  MOL  M5  5  0.0  72.0
  6  C3  1  MOL  M6  6  0.0  72.0

[ bonds ]
; i  j  funct  r0[nm]  k[kJ/mol/nm2]
  1  2  1  0.3737  5922.3
  2  3  1  0.3929  2268.9
  3  4  1  0.4690  4955.5
  4  5  1  0.3565  4634.9
  5  6  1  0.4565  2413.1

[ angles ]
; i  j  k  funct  theta0[deg]  k[kJ/mol/rad2]
  1  2  3  2  100.4  74.6
  2  3  4  2  107.8  113.5
  3  4  5  2  139.1  118.3
  4  5  6  2  105.6  116.8

