; Synthetic MARTINI 3 molecule: POL057
; Generated by make_sample_data.py for pipeline testing

[ moleculetype ]
; name  nrexcl
POL057  1

[ atoms ]
; nr  type  resnr residue atom cgnr charge mass
  1  SN2  1  MOL  M1  1  0.0  54.0
  2  SN1  1  MOL  M2  2  0.0  54.0
  3  TN1  1  MOL  M3  3  0.0  36.0
  4  SN2  1  MOL  M4  4  0.0  54.0
  5  SN1  1  MOL  M5  5  0.0  54.0
  6  TC2  1  MOL  M6  6  0.0  36.0
  7  SC3  1  MOL  M7  7  0.0  54.0
  8  TN2  1  MOL  M8  8  0.0  36.0
  9  C4  1  MOL  M9  9  0.0  72.0

[ bonds ]
; i  j  funct  r0[nm]  k[kJ/mol/nm2]
  1  2  1  0.3567  5516.7
  2  3  1  0.3987  4229.3
  3  4  1  0.3578  4667.4
  4  5  1  0.4146  5591.7
  5  6  1  0.5276  3301.2
  6  7  1  0.5302  5984.6
  7  8  1  0.5151  5379.5
  8  9  1  0.3998  4306.8

[ angles ]
; i  j  k  funct  theta0[deg]  k[kJ/mol/rad2]
  1  2  3  2  94.0  25.0
  2  3  4  2  149.9  49.3
  3  4  5  2  134.9  99.7
  4  5  6  2  141.5  119.8
  5  6  7  2  104.5  19.2
  6  7  8  2  114.7  28.7
  7  8  9  2  91.3  52.8

