; Synthetic MARTINI 3 molecule: POL018
; Generated by make_sample_data.py for pipeline testing

[ moleculetype ]
; name  nrexcl
POL018  1

[ atoms ]
; nr  type  resnr residue atom cgnr charge mass
  1  N2  1  MOL  M1  1  0.0  72.0
  2  SN1  1  MOL  M2  2  0.0  54.0
  3  TN2  1  MOL  M3  3  0.0  36.0
  4  C4  1  MOL  M4  4  0.0  72.0
  5  N4  1  MOL  M5  5  0.0  72.0
  6  SC3  1  MOL  M6  6  0.0  54.0
  7  TC2  1  MOL  M7  7  0.0  36.0
  8  C2  1  MOL  M8  8  0.0  72.0
  9  SN1  1  MOL  M9  9  0.0  54.0
  10  C1  1  MOL  M10  10  0.0  72.0

[ bonds ]
; i  j  funct  r0[nm]  k[kJ/mol/nm2]
  1  2  1  0.4138  4503.6
  2  3  1  0.5272  4463.5
  3  4  1  0.3966  2097.6
  4  5  1  0.5240  2085.1
  5  6  1  0.5249  4115.7
  6  7  1  0.5378  5195.1
  7  8  1  0.5496  3402.8
  8  9  1  0.5034  3607.7
  9  10  1  0.4460  4510.0

[ angles ]
; i  j  k  funct  theta0[deg]  k[kJ/mol/rad2]
  1  2  3  2  142.4  118.3
  2  3  4  2  136.1  58.9
  3  4  5  2  115.3  92.4
  4  5  6  2  104.3  26.6
  5  6  7  2  111.3  45.2
  6  7  8  2  107.8  39.5
  7  8  9  2  92.5  16.9
  8  9  10  2  149.3  59.9

