; Synthetic MARTINI 3 molecule: POL099
; Generated by make_sample_data.py for pipeline testing

[ moleculetype ]
; name  nrexcl
POL099  1

[ atoms ]
; nr  type  resnr residue atom cgnr charge mass
  1  SC2  1  MOL  M1  1  0.0  54.0
  2  N4  1  MOL  M2  2  0.0  72.0
  3  TN2  1  MOL  M3  3  0.0  36.0
  4  SC1  1  MOL  M4  4  0.0  54.0
  5  TC1  1  MOL  M5  5  0.0  36.0
  6  C1  1  MOL  M6  6  0.0  72.0

[ bonds ]
; i  j  funct  r0[nm]  k[kJ/mol/nm2]
  1  2  1  0.5146  2940.1
  2  3  1  0.4805  3620.8
  3  4  1  0.4692  2429.8
  4  5  1  0.3534  5638.3
  5  6  1  0.4039  5278.7

[ angles ]
; i  j  k  funct  theta0[deg]  k[kJ/mol/rad2]
  1  2  3  2  150.0  37.2
  2  3  4  2  105.9  84.6
  3  4  5  2  147.9  111.2
  4  5  6  2  120.2  98.5

