; Synthetic MARTINI 3 molecule: POL069
; Generated by make_sample_data.py for pipeline testing

[ moleculetype ]
; name  nrexcl
POL069  1

[ atoms ]
; nr  type  resnr residue atom cgnr charge mass
  1  C3  1  MOL  M1  1  0.0  72.0
  2  N3  1  MOL  M2  2  0.0  72.0
  3  TC1  1  MOL  M3  3  0.0  36.0
  4  C1  1  MOL  M4  4  0.0  72.0
  5  N2  1  MOL  M5  5  0.0  72.0
  6  C4  1  MOL  M6  6  0.0  72.0
  7  N2  1  MOL  M7  7  0.0  72.0
  8  SC1  1  MOL  M8  8  0.0  54.0
  9  SC1  1  MOL  M9  9  0.0  54.0
  10  C2  1  MOL  M10  10  0.0  72.0
  11  N1  1  MOL  M11  11  0.0  72.0

[ bonds ]
; i  j  funct  r0[nm]  k[kJ/mol/nm2]
  1  2  1  0.4435  4477.6
  2  3  1  0.4322  3709.9
  3  4  1  0.4161  4256.9
  4  5  1  0.5201  2806.1
  5  6  1  0.5369  4756.4
  6  7  1  0.5147  4224.8
  7  8  1  0.5059  2064.8
  8  9  1  0.5137  2160.6
  9  10  1  0.5280  5967.9
  10  11  1  0.4088  2841.3

[ angles ]
; i  j  k  funct  theta0[deg]  k[kJ/mol/rad2]
  1  2  3  2  135.9  41.6
  2  3  4  2  141.9  25.8
  3  4  5  2  97.6  117.8
  4  5  6  2  130.4  103.9
  5  6  7  2  109.5  86.0
  6  7  8  2  125.7  78.3
  7  8  9  2  131.0  75.4
  8  9  10  2  115.7  44.0
  9  10  11  2  136.1  38.8

