; Synthetic MARTINI 3 molecule: POL021
; Generated by make_sample_data.py for pipeline testing

[ moleculetype ]
; name  nrexcl
POL021  1

[ atoms ]
; nr  type  resnr residue atom cgnr charge mass
  1  C4  1  MOL  M1  1  0.0  72.0
  2  SN1  1  MOL  M2  2  0.0  54.0
  3  TC1  1  MOL  M3  3  0.0  36.0
  4  SC2  1  MOL  M4  4  0.0  54.0
  5  TN2  1  MOL  M5  5  0.0  36.0

[ bonds ]
; i  j  funct  r0[nm]  k[kJ/mol/nm2]
  1  2  1  0.3762  2130.1
  2  3  1  0.5342  4466.6
  3  4  1  0.5093  3926.1
  4  5  1  0.3735  2500.7

[ angles ]
; i  j  k  funct  theta0[deg]  k[kJ/mol/rad2]
  1  2  3  2  131.1  60.2
  2  3  4  2  102.0  66.6
  3  4  5  2  93.9  76.1

