; Synthetic MARTINI 3 molecule: POL066
; Generated by make_sample_data.py for pipeline testing

[ moleculetype ]
; name  nrexcl
POL066  1

[ atoms ]
; nr  type  resnr residue atom cgnr charge mass
  1  N2  1  MOL  M1  1  0.0  72.0
  2  SC1  1  MOL  M2  2  0.0  54.0
  3  N4  1  MOL  M3  3  0.0  72.0
  4  SC1  1  MOL  M4  4  0.0  54.0
  5  SC2  1  MOL  M5  5  0.0  54.0

[ bonds ]
; i  j  funct  r0[nm]  k[kJ/mol/nm2]
  1  2  1  0.4963  5297.9
  2  3  1  0.3793  5331.7
  3  4  1  0.4581  5378.7
  4  5  1  0.4363  3516.2

[ angles ]
; i  j  k  funct  theta0[deg]  k[kJ/mol/rad2]
  1  2  3  2  144.9  41.4
  2  3  4  2  140.7  65.8
  3  4  5  2  120.8  47.4

