; Synthetic MARTINI 3 molecule: POL063
; Generated by make_sample_data.py for pipeline testing

[ moleculetype ]
; name  nrexcl
POL063  1

[ atoms ]
; nr  type  resnr residue atom cgnr charge mass
  1  TC1  1  MOL  M1  1  0.0  36.0
  2  SN2  1  MOL  M2  2  0.0  54.0
  3  SN2  1  MOL  M3  3  0.0  54.0
  4  TN2  1  MOL  M4  4  0.0  36.0
  5  TN2  1  MOL  M5  5  0.0  36.0

[ bonds ]
; i  j  funct  r0[nm]  k[kJ/mol/nm2]
  1  2  1  0.4827  3644.8
  2  3  1  0.4305  5538.3
  3  4  1  0.5291  5636.7
  4  5  1  0.4128  4764.2

[ angles ]
; i  j  k  funct  theta0[deg]  k[kJ/mol/rad2]
  1  2  3  2  106.3  35.0
  2  3  4  2  101.1  50.9
  3  4  5  2  115.8  102.2

