; Synthetic MARTINI 3 molecule: POL025
; Generated by make_sample_data.py for pipeline testing

[ moleculetype ]
; name  nrexcl
POL025  1

[ atoms ]
; nr  type  resnr residue atom cgnr charge mass
  1  C1  1  MOL  M1  1  0.0  72.0
  2  C2  1  MOL  M2  2  0.0  72.0
  3  N3  1  MOL  M3  3  0.0  72.0
  4  TC1  1  MOL  M4  4  0.0  36.0
  5  C3  1  MOL  M5  5  0.0  72.0
  6  C2  1  MOL  M6  6  0.0  72.0
  7  C1  1  MOL  M7  7  0.0  72.0
  8  TC1  1  MOL  M8  8  0.0  36.0
  9  SC3  1  MOL  M9  9  0.0  54.0
  10  C1  1  MOL  M10  10  0.0  72.0
  11  SC1  1  MOL  M11  11  0.0  54.0
  12  TC1  1  MOL  M12  12  0.0  36.0

[ bonds ]
; i  j  funct  r0[nm]  k[kJ/mol/nm2]
  1  2  1  0.4716  5059.5
  2  3  1  0.5126  4872.5
  3  4  1  0.5411  2072.9
  4  5  1  0.3892  2030.3
  5  6  1  0.4795  5592.1
  6  7  1  0.3987  5708.1
  7  8  1  0.3621  5737.7
  8  9  1  0.4203  2405.7
  9  10  1  0.4472  3027.1
  10  11  1  0.4070  3229.2
  11  12  1  0.5106  4156.6

[ angles ]
; i  j  k  funct  theta0[deg]  k[kJ/mol/rad2]
  1  2  3  2  108.7  79.1
  2  3  4  2  133.0  43.6
  3  4  5  2  114.8  27.8
  4  5  6  2  100.9  86.5
  5  6  7  2  100.9  70.1
  6  7  8  2  132.5  26.2
  7  8  9  2  124.0  41.9
  8  9  10  2  147.8  65.8
  9  10  11  2  138.4  72.8
  10  11  12  2  92.6  81.5

