; Synthetic MARTINI 3 molecule: POL035
; Generated by make_sample_data.py for pipeline testing

[ moleculetype ]
; name  nrexcl
POL035  1

[ atoms ]
; nr  type  resnr residue atom cgnr charge mass
  1  SC1  1  MOL  M1  1  0.0  54.0
  2  TC2  1  MOL  M2  2  0.0  36.0
  3  SC1  1  MOL  M3  3  0.0  54.0
  4  C3  1  MOL  M4  4  0.0  72.0
  5  C2  1  MOL  M5  5  0.0  72.0
  6  SC2  1  MOL  M6  6  0.0  54.0
  7  N1  1  MOL  M7  7  0.0  72.0
  8  N1  1  MOL  M8  8  0.0  72.0

[ bonds ]
; i  j  funct  r0[nm]  k[kJ/mol/nm2]
  1  2  1  0.5259  5482.3
  2  3  1  0.3978  3805.0
  3  4  1  0.5470  5088.0
  4  5  1  0.3554  2260.8
  5  6  1  0.4428  5636.9
  6  7  1  0.4577  3991.3
  7  8  1  0.3711  4627.1

[ angles ]
; i  j  k  funct  theta0[deg]  k[kJ/mol/rad2]
  1  2  3  2  139.3  54.9
  2  3  4  2  136.5  116.3
  3  4  5  2  102.2  69.9
  4  5  6  2  107.2  98.2
  5  6  7  2  124.7  81.6
  6  7  8  2  137.9  56.6

