; Synthetic MARTINI 3 molecule: POL040
; Generated by make_sample_data.py for pipeline testing

[ moleculetype ]
; name  nrexcl
POL040  1

[ atoms ]
; nr  type  resnr residue atom cgnr charge mass
  1  C3  1  MOL  M1  1  0.0  72.0
  2  TC2  1  MOL  M2  2  0.0  36.0
  3  SN1  1  MOL  M3  3  0.0  54.0
  4  N2  1  MOL  M4  4  0.0  72.0
  5  TN2  1  MOL  M5  5  0.0  36.0
  6  TC2  1  MOL  M6  6  0.0  36.0
  7  C1  1  MOL  M7  7  0.0  72.0

[ bonds ]
; i  j  funct  r0[nm]  k[kJ/mol/nm2]
  1  2  1  0.5002  2284.0
  2  3  1  0.3660  3419.1
  3  4  1  0.5383  4674.3
  4  5  1  0.4857  3447.7
  5  6  1  0.4687  2040.5
  6  7  1  0.4772  5653.1

[ angles ]
; i  j  k  funct  theta0[deg]  k[kJ/mol/rad2]
  1  2  3  2  126.8  106.7
  2  3  4  2  133.4  27.7
  3  4  5  2  144.1  22.0
  4  5  6  2  122.0  29.9
  5  6  7  2  90.7  59.3

