; Synthetic MARTINI 3 molecule: POL007
; Generated by make_sample_data.py for pipeline testing

[ moleculetype ]
; name  nrexcl
POL007  1

[ atoms ]
; nr  type  resnr residue atom cgnr charge mass
  1  TN2  1  MOL  M1  1  0.0  36.0
  2  SN1  1  MOL  M2  2  0.0  54.0
  3  SC3  1  MOL  M3  3  0.0  54.0
  4  SC3  1  MOL  M4  4  0.0  54.0
  5  N1  1  MOL  M5  5  0.0  72.0
  6  N4  1  MOL  M6  6  0.0  72.0
  7  N3  1  MOL  M7  7  0.0  72.0
  8  SN2  1  MOL  M8  8  0.0  54.0
  9  TN2  1  MOL  M9  9  0.0  36.0

[ bonds ]
; i  j  funct  r0[nm]  k[kJ/mol/nm2]
  1  2  1  0.4511  5305.8
  2  3  1  0.4140  5582.1
  3  4  1  0.4278  2043.4
  4  5  1  0.5311  2365.1
  5  6  1  0.4139  5800.2
  6  7  1  0.5401  4293.8
  7  8  1  0.4764  3793.8
  8  9  1  0.4086  3314.7

[ angles ]
; i  j  k  funct  theta0[deg]  k[kJ/mol/rad2]
  1  2  3  2  130.4  94.0
  2  3  4  2  137.5  97.9
  3  4  5  2  95.5  66.9
  4  5  6  2  93.5  72.7
  5  6  7  2  116.5  108.2
  6  7  8  2  111.1  27.3
  7  8  9  2  98.6  95.0

