; Synthetic MARTINI 3 molecule: POL083
; Generated by make_sample_data.py for pipeline testing

[ moleculetype ]
; name  nrexcl
POL083  1

[ atoms ]
; nr  type  resnr residue atom cgnr charge mass
  1  N2  1  MOL  M1  1  0.0  72.0
  2  TC1  1  MOL  M2  2  0.0  36.0
  3  SN2  1  MOL  M3  3  0.0  54.0
  4  C4  1  MOL  M4  4  0.0  72.0
  5  TC2  1  MOL  M5  5  0.0  36.0
  6  SN2  1  MOL  M6  6  0.0  54.0

[ bonds ]
; i  j  funct  r0[nm]  k[kJ/mol/nm2]
  1  2  1  0.4254  3573.3
  2  3  1  0.4589  2639.5
  3  4  1  0.4882  2670.3
  4  5  1  0.4121  4013.4
  5  6  1  0.5093  4957.9

[ angles ]
; i  j  k  funct  theta0[deg]  k[kJ/mol/rad2]
  1  2  3  2  128.7  31.4
  2  3  4  2  122.8  24.2
  3  4  5  2  112.6  58.4
  4  5  6  2  92.4  43.8

