; Synthetic MARTINI 3 molecule: POL052
; Generated by make_sample_data.py for pipeline testing

[ moleculetype ]
; name  nrexcl
POL052  1

[ atoms ]
; nr  type  resnr residue atom cgnr charge mass
  1  TN2  1  MOL  M1  1  0.0  36.0
  2  TC1  1  MOL  M2  2  0.0  36.0
  3  C2  1  MOL  M3  3  0.0  72.0
  4  TN2  1  MOL  M4  4  0.0  36.0
  5  N1  1  MOL  M5  5  0.0  72.0
  6  SN2  1  MOL  M6  6  0.0  54.0
  7  C1  1  MOL  M7  7  0.0  72.0
  8  C2  1  MOL  M8  8  0.0  72.0
  9  TN1  1  MOL  M9  9  0.0  36.0
  10  N4  1  MOL  M10  10  0.0  72.0
  11  SN1  1  MOL  M11  11  0.0  54.0
  12  C4  1  MOL  M12  12  0.0  72.0

[ bonds ]
; i  j  funct  r0[nm]  k[kJ/mol/nm2]
  1  2  1  0.4973  5532.0
  2  3  1  0.3905  4350.3
  3  4  1  0.4902  4720.4
  4  5  1  0.4316  2061.6
  5  6  1  0.4666  3012.4
  6  7  1  0.4401  5830.3
  7  8  1  0.4298  5359.2
  8  9  1  0.3877  4689.8
  9  10  1  0.5454  2407.6
  10  11  1  0.3517  3734.3
  11  12  1  0.3685  4993.5

[ angles ]
; i  j  k  funct  theta0[deg]  k[kJ/mol/rad2]
  1  2  3  2  144.9  60.6
  2  3  4  2  105.5  60.6
  3  4  5  2  133.4  16.0
  4  5  6  2  125.4  79.4
  5  6  7  2  128.3  40.4
  6  7  8  2  132.8  24.6
  7  8  9  2  102.0  107.1
  8  9  10  2  134.3  16.4
  9  10  11  2  104.9  37.5
  10  11  12  2  106.2  41.0

