; Synthetic MARTINI 3 molecule: POL027
; Generated by make_sample_data.py for pipeline testing

[ moleculetype ]
; name  nrexcl
POL027  1

[ atoms ]
; nr  type  resnr residue atom cgnr charge mass
  1  C1  1  MOL  M1  1  0.0  72.0
  2  SN1  1  MOL  M2  2  0.0  54.0
  3  TN1  1  MOL  M3  3  0.0  36.0
  4  C4  1  MOL  M4  4  0.0  72.0
  5  SN1  1  MOL  M5  5  0.0  54.0
  6  N3  1  MOL  M6  6  0.0  72.0
  7  SN2  1  MOL  M7  7  0.0  54.0
  8  SC1  1  MOL  M8  8  0.0  54.0
  9  SN1  1  MOL  M9  9  0.0  54.0
  10  SC2  1  MOL  M10  10  0.0  54.0

[ bonds ]
; i  j  funct  r0[nm]  k[kJ/mol/nm2]
  1  2  1  0.4580  5368.1
  2  3  1  0.4542  4494.3
  3  4  1  0.3678  5021.1
  4  5  1  0.3755  5304.3
  5  6  1  0.5064  4835.0
  6  7  1  0.3572  3212.5
  7  8  1  0.4026  3440.5
  8  9  1  0.3675  5747.8
  9  10  1  0.4608  3222.1

[ angles ]
; i  j  k  funct  theta0[deg]  k[kJ/mol/rad2]
  1  2  3  2  113.8  62.0
  2  3  4  2  126.0  69.1
  3  4  5  2  145.2  67.2
  4  5  6  2  149.5  104.4
  5  6  7  2  102.5  112.7
  6  7  8  2  97.0  100.8
  7  8  9  2  112.8  107.2
  8  9  10  2  142.1  99.6

