; Synthetic MARTINI 3 molecule: POL084
; Generated by make_sample_data.py for pipeline testing

[ moleculetype ]
; name  nrexcl
POL084  1

[ atoms ]
; nr  type  resnr residue atom cgnr charge mass
  1  TN2  1  MOL  M1  1  0.0  36.0
  2  SN2  1  MOL  M2  2  0.0  54.0
  3  TN1  1  MOL  M3  3  0.0  36.0
  4  N1  1  MOL  M4  4  0.0  72.0
  5  TN1  1  MOL  M5  5  0.0  36.0
  6  C1  1  MOL  M6  6  0.0  72.0
  7  C3  1  MOL  M7  7  0.0  72.0
  8  N4  1  MOL  M8  8  0.0  72.0
  9  TN2  1  MOL  M9  9  0.0  36.0
  10  SN2  1  MOL  M10  10  0.0  54.0
  11  TC1  1  MOL  M11  11  0.0  36.0
  12  SC3  1  MOL  M12  12  0.0  54.0

[ bonds ]
; i  j  funct  r0[nm]  k[kJ/mol/nm2]
  1  2  1  0.3893  2949.9
  2  3  1  0.4100  4571.2
  3  4  1  0.4702  4784.3
  4  5  1  0.4225  5296.0
  5  6  1  0.3908  3876.2
  6  7  1  0.5102  2720.6
  7  8  1  0.3720  5534.7
  8  9  1  0.4186  4735.5
  9  10  1  0.3551  4760.2
  10  11  1  0.4132  2223.0
  11  12  1  0.4720  2963.2

[ angles ]
; i  j  k  funct  theta0[deg]  k[kJ/mol/rad2]
  1  2  3  2  113.2  23.5
  2  3  4  2  98.8  46.3
  3  4  5  2  95.4  110.6
  4  5  6  2  90.4  65.8
  5  6  7  2  97.4  47.3
  6  7  8  2  145.6  32.0
  7  8  9  2  147.9  36.6
  8  9  10  2  134.5  72.4
  9  10  11  2  143.1  73.2
  10  11  12  2  122.1  35.5

