; Synthetic MARTINI 3 molecule: POL060
; Generated by make_sample_data.py for pipeline testing

[ moleculetype ]
; name  nrexcl
POL060  1

[ atoms ]
; nr  type  resnr residue atom cgnr charge mass
  1  N4  1  MOL  M1  1  0.0  72.0
  2  N1  1  MOL  M2  2  0.0  72.0
  3  N2  1  MOL  M3  3  0.0  72.0
  4  TC1  1  MOL  M4  4  0.0  36.0
  5  N2  1  MOL  M5  5  0.0  72.0
  6  SC2  1  MOL  M6  6  0.0  54.0

[ bonds ]
; i  j  funct  r0[nm]  k[kJ/mol/nm2]
  1  2  1  0.4649  4668.8
  2  3  1  0.5054  5448.8
  3  4  1  0.4128  4152.1
  4  5  1  0.5180  5957.8
  5  6  1  0.5279  3485.9

[ angles ]
; i  j  k  funct  theta0[deg]  k[kJ/mol/rad2]
  1  2  3  2  101.7  66.4
  2  3  4  2  134.5  66.7
  3  4  5  2  119.0  103.0
  4  5  6  2  111.7  105.3

