; Synthetic MARTINI 3 molecule: POL088
; Generated by make_sample_data.py for pipeline testing

[ moleculetype ]
; name  nrexcl
POL088  1

[ atoms ]
; nr  type  resnr residue atom cgnr charge mass
  1  C2  1  MOL  M1  1  0.0  72.0
  2  C4  1  MOL  M2  2  0.0  72.0
  3  SC3  1  MOL  M3  3  0.0  54.0
  4  C1  1  MOL  M4  4  0.0  72.0
  5  SN2  1  MOL  M5  5  0.0  54.0
  6  N2  1  MOL  M6  6  0.0  72.0
  7  SN1  1  MOL  M7  7  0.0  54.0
  8  SC1  1  MOL  M8  8  0.0  54.0

[ bonds ]
; i  j  funct  r0[nm]  k[kJ/mol/nm2]
  1  2  1  0.3868  5025.8
  2  3  1  0.4448  2903.2
  3  4  1  0.4733  2161.3
  4  5  1  0.4152  3874.2
  5  6  1  0.3796  5938.6
  6  7  1  0.3918  2521.4
  7  8  1  0.3907  5076.2

[ angles ]
; i  j  k  funct  theta0[deg]  k[kJ/mol/rad2]
  1  2  3  2  115.5  74.4
  2  3  4  2  91.3  18.6
  3  4  5  2  116.7  100.7
  4  5  6  2  143.1  24.1
  5  6  7  2  122.3  110.9
  6  7  8  2  113.3  102.1

