; Synthetic MARTINI 3 molecule: POL081
; Generated by make_sample_data.py for pipeline testing

[ moleculetype ]
; name  nrexcl
POL081  1

[ atoms ]
; nr  type  resnr residue atom cgnr charge mass
  1  SC1  1  MOL  M1  1  0.0  54.0
  2  N1  1  MOL  M2  2  0.0  72.0
  3  C3  1  MOL  M3  3  0.0  72.0
  4  TN2  1  MOL  M4  4  0.0  36.0
  5  SC2  1  MOL  M5  5  0.0  54.0
  6  SC1  1  MOL  M6  6  0.0  54.0
  7  SC2  1  MOL  M7  7  0.0  54.0
  8  N2  1  MOL  M8  8  0.0  72.0
  9  C2  1  MOL  M9  9  0.0  72.0

[ bonds ]
; i  j  funct  r0[nm]  k[kJ/mol/nm2]
  1  2  1  0.4511  4031.0
  2  3  1  0.3777  5931.0
  3  4  1  0.4000  2293.5
  4  5  1  0.4826  4381.5
  5  6  1  0.4330  3688.8
  6  7  1  0.5070  2782.9
  7  8  1  0.5141  4595.0
  8  9  1  0.4338  3832.1

[ angles ]
; i  j  k  funct  theta0[deg]  k[kJ/mol/rad2]
  1  2  3  2  105.4  94.0
  2  3  4  2  120.8  48.7
  3  4  5  2  125.8  119.6
  4  5  6  2  116.1  111.7
  5  6  7  2  110.7  20.7
  6  7  8  2  102.3  59.0
  7  8  9  2  103.2  15.0

