; Synthetic MARTINI 3 molecule: POL074
; Generated by make_sample_data.py for pipeline testing

[ moleculetype ]
; name  nrexcl
POL074  1

[ atoms ]
; nr  type  resnr residue atom cgnr charge mass
  1  SN1  1  MOL  M1  1  0.0  54.0
  2  C3  1  MOL  M2  2  0.0  72.0
  3  SN1  1  MOL  M3  3  0.0  54.0
  4  SC2  1  MOL  M4  4  0.0  54.0
  5  N1  1  MOL  M5  5  0.0  72.0
  6  N2  1  MOL  M6  6  0.0  72.0

[ bonds ]
; i  j  funct  r0[nm]  k[kJ/mol/nm2]
  1  2  1  0.3941  4502.6
  2  3  1  0.4643  2739.4
  3  4  1  0.3619  4417.4
  4  5  1  0.5027  4093.6
  5  6  1  0.3954  4666.1

[ angles ]
; i  j  k  funct  theta0[deg]  k[kJ/mol/rad2]
  1  2  3  2  94.8  61.4
  2  3  4  2  99.8  34.4
  3  4  5  2  102.1  55.6
  4  5  6  2  93.1  56.8

