; Synthetic MARTINI 3 molecule: POL020
; Generated by make_sample_data.py for pipeline testing

[ moleculetype ]
; name  nrexcl
POL020  1

[ atoms ]
; nr  type  resnr residue atom cgnr charge mass
  1  SC2  1  MOL  M1  1  0.0  54.0
  2  C3  1  MOL  M2  2  0.0  72.0
  3  N1  1  MOL  M3  3  0.0  72.0
  4  TN2  1  MOL  M4  4  0.0  36.0
  5  N2  1  MOL  M5  5  0.0  72.0
  6  C3  1  MOL  M6  6  0.0  72.0
  7  TC1  1  MOL  M7  7  0.0  36.0
  8  N1  1  MOL  M8  8  0.0  72.0
  9  TC1  1  MOL  M9  9  0.0  36.0
  10  SC3  1  MOL  M10  10  0.0  54.0
  11  SC1  1  MOL  M11  11  0.0  54.0
  12  C1  1  MOL  M12  12  0.0  72.0

[ bonds ]
; i  j  funct  r0[nm]  k[kJ/mol/nm2]
  1  2  1  0.5060  2427.9
  2  3  1  0.5022  4165.1
  3  4  1  0.5426  3367.5
  4  5  1  0.4765  5728.1
  5  6  1  0.3705  5748.9
  6  7  1  0.4876  2271.3
  7  8  1  0.4102  4832.7
  8  9  1  0.3635  4328.7
  9  10  1  0.4192  4483.7
  10  11  1  0.3591  5486.1
  11  12  1  0.5447  5875.5

[ angles ]
; i  j  k  funct  theta0[deg]  k[kJ/mol/rad2]
  1  2  3  2  135.0  28.7
  2  3  4  2  135.5  17.6
  3  4  5  2  91.3  49.0
  4  5  6  2  119.3  95.9
  5  6  7  2  131.0  61.8
  6  7  8  2  106.4  119.7
  7  8  9  2  115.6  62.4
  8  9  10  2  99.8  98.5
  9  10  11  2  131.6  38.2
  10  11  12  2  94.9  86.5

