; Synthetic MARTINI 3 molecule: POL096
; Generated by make_sample_data.py for pipeline testing

[ moleculetype ]
; name  nrexcl
POL096  1

[ atoms ]
; nr  type  resnr residue atom cgnr charge mass
  1  TC1  1  MOL  M1  1  0.0  36.0
  2  C3  1  MOL  M2  2  0.0  72.0
  3  TN2  1  MOL  M3  3  0.0  36.0
  4  SN2  1  MOL  M4  4  0.0  54.0
  5  TN2  1  MOL  M5  5  0.0  36.0
  6  N3  1  MOL  M6  6  0.0  72.0
  7  C3  1  MOL  M7  7  0.0  72.0
  8  C4  1  MOL  M8  8  0.0  72.0

[ bonds ]
; i  j  funct  r0[nm]  k[kJ/mol/nm2]
  1  2  1  0.4376  3369.6
  2  3  1  0.4593  2365.4
  3  4  1  0.5013  4329.7
  4  5  1  0.3873  2752.9
  5  6  1  0.3868  2228.0
  6  7  1  0.4676  5361.4
  7  8  1  0.3535  2196.0

[ angles ]
; i  j  k  funct  theta0[deg]  k[kJ/mol/rad2]
  1  2  3  2  124.4  101.0
  2  3  4  2  109.6  51.7
  3  4  5  2  125.8  43.8
  4  5  6  2  91.6  92.2
  5  6  7  2  127.5  76.0
  6  7  8  2  134.5  85.9

