; Synthetic MARTINI 3 molecule: POL061
; Generated by make_sample_data.py for pipeline testing

[ moleculetype ]
; name  nrexcl
POL061  1

[ atoms ]
; nr  type  resnr residue atom cgnr charge mass
  1  SC3  1  MOL  M1  1  0.0  54.0
  2  SC2  1  MOL  M2  2  0.0  54.0
  3  SC1  1  MOL  M3  3  0.0  54.0
  4  C3  1  MOL  M4  4  0.0  72.0
  5  SC2  1  MOL  M5  5  0.0  54.0
  6  TN1  1  MOL  M6  6  0.0  36.0
  7  SN2  1  MOL  M7  7  0.0  54.0
  8  SN2  1  MOL  M8  8  0.0  54.0
  9  N2  1  MOL  M9  9  0.0  72.0

[ bonds ]
; i  j  funct  r0[nm]  k[kJ/mol/nm2]
  1  2  1  0.4249  5190.9
  2  3  1  0.4235  2348.1
  3  4  1  0.4614  5380.5
  4  5  1  0.5092  2700.5
  5  6  1  0.4846  2882.0
  6  7  1  0.3936  5496.3
  7  8  1  0.3999  3053.0
  8  9  1  0.3501  5482.7

[ angles ]
; i  j  k  funct  theta0[deg]  k[kJ/mol/rad2]
  1  2  3  2  137.6  80.9
  2  3  4  2  135.0  31.0
  3  4  5  2  117.5  51.9
  4  5  6  2  95.6  66.0
  5  6  7  2  145.2  19.2
  6  7  8  2  107.5  36.8
  7  8  9  2  104.3  110.4

