; Synthetic MARTINI 3 molecule: POL082
; Generated by make_sample_data.py for pipeline testing

[ moleculetype ]
; name  nrexcl
POL082  1

[ atoms ]
; nr  type  resnr residue atom cgnr charge mass
  1  TN1  1  MOL  M1  1  0.0  36.0
  2  TC1  1  MOL  M2  2  0.0  36.0
  3  N4  1  MOL  M3  3  0.0  72.0
  4  N1  1  MOL  M4  4  0.0  72.0
  5  SN2  1  MOL  M5  5  0.0  54.0
  6  C3  1  MOL  M6  6  0.0  72.0
  7  C2  1  MOL  M7  7  0.0  72.0
  8  SC2  1  MOL  M8  8  0.0  54.0
  9  SN2  1  MOL  M9  9  0.0  54.0

[ bonds ]
; i  j  funct  r0[nm]  k[kJ/mol/nm2]
  1  2  1  0.4421  5955.4
  2  3  1  0.4466  5947.6
  3  4  1  0.5009  2994.4
  4  5  1  0.4577  5968.5
  5  6  1  0.5215  2389.5
  6  7  1  0.4913  3382.3
  7  8  1  0.3514  3613.9
  8  9  1  0.3970  5275.5

[ angles ]
; i  j  k  funct  theta0[deg]  k[kJ/mol/rad2]
  1  2  3  2  110.2  101.9
  2  3  4  2  90.0  47.3
  3  4  5  2  104.5  39.5
  4  5  6  2  94.1  34.6
  5  6  7  2  123.3  45.6
  6  7  8  2  115.0  54.6
  7  8  9  2  142.6  110.1

