; Synthetic MARTINI 3 molecule: POL085
; Generated by make_sample_data.py for pipeline testing

[ moleculetype ]
; name  nrexcl
POL085  1

[ atoms ]
; nr  type  resnr residue atom cgnr charge mass
  1  C2  1  MOL  M1  1  0.0  72.0
  2  N4  1  MOL  M2  2  0.0  72.0
  3  C2  1  MOL  M3  3  0.0  72.0
  4  SC3  1  MOL  M4  4  0.0  54.0
  5  N3  1  MOL  M5  5  0.0  72.0
  6  N1  1  MOL  M6  6  0.0  72.0
  7  C3  1  MOL  M7  7  0.0  72.0
  8  N4  1  MOL  M8  8  0.0  72.0
  9  TN2  1  MOL  M9  9  0.0  36.0
  10  SN2  1  MOL  M10  10  0.0  54.0

[ bonds ]
; i  j  funct  r0[nm]  k[kJ/mol/nm2]
  1  2  1  0.4591  2816.3
  2  3  1  0.4084  4994.4
  3  4  1  0.4465  2864.1
  4  5  1  0.5435  4860.5
  5  6  1  0.5414  3708.4
  6  7  1  0.4450  5591.8
  7  8  1  0.4550  4829.1
  8  9  1  0.4004  3786.9
  9  10  1  0.3747  2823.9

[ angles ]
; i  j  k  funct  theta0[deg]  k[kJ/mol/rad2]
  1  2  3  2  90.1  19.1
  2  3  4  2  148.6  40.4
  3  4  5  2  129.8  103.1
  4  5  6  2  123.0  31.1
  5  6  7  2  133.7  78.0
  6  7  8  2  133.9  95.8
  7  8  9  2  148.5  75.2
  8  9  10  2  110.5  83.1

