; Synthetic MARTINI 3 molecule: POL065
; Generated by make_sample_data.py for pipeline testing

[ moleculetype ]
; name  nrexcl
POL065  1

[ atoms ]
; nr  type  resnr residue atom cgnr charge mass
  1  SC1  1  MOL  M1  1  0.0  54.0
  2  TN2  1  MOL  M2  2  0.0  36.0
  3  C3  1  MOL  M3  3  0.0  72.0
  4  SN1  1  MOL  M4  4  0.0  54.0
  5  TN2  1  MOL  M5  5  0.0  36.0
  6  N3  1  MOL  M6  6  0.0  72.0
  7  C1  1  MOL  M7  7  0.0  72.0
  8  N3  1  MOL  M8  8  0.0  72.0
  9  N1  1  MOL  M9  9  0.0  72.0
  10  SC2  1  MOL  M10  10  0.0  54.0

[ bonds ]
; i  j  funct  r0[nm]  k[kJ/mol/nm2]
  1  2  1  0.4563  2130.6
  2  3  1  0.4451  3631.0
  3  4  1  0.3822  4625.6
  4  5  1  0.5442  4248.8
  5  6  1  0.4930  2273.8
  6  7  1  0.4335  2465.4
  7  8  1  0.4726  5753.9
  8  9  1  0.4824  2307.2
  9  10  1  0.4209  4202.7

[ angles ]
; i  j  k  funct  theta0[deg]  k[kJ/mol/rad2]
  1  2  3  2  114.2  102.5
  2  3  4  2  138.9  79.2
  3  4  5  2  112.4  41.8
  4  5  6  2  96.4  52.3
  5  6  7  2  114.8  86.0
  6  7  8  2  129.5  22.4
  7  8  9  2  113.7  34.1
  8  9  10  2  99.4  101.9

