; Synthetic MARTINI 3 molecule: POL095
; Generated by make_sample_data.py for pipeline testing

[ moleculetype ]
; name  nrexcl
POL095  1

[ atoms ]
; nr  type  resnr residue atom cgnr charge mass
  1  C2  1  MOL  M1  1  0.0  72.0
  2  C4  1  MOL  M2  2  0.0  72.0
  3  SN2  1  MOL  M3  3  0.0  54.0
  4  N1  1  MOL  M4  4  0.0  72.0
  5  SC2  1  MOL  M5  5  0.0  54.0
  6  N4  1  MOL  M6  6  0.0  72.0
  7  TN2  1  MOL  M7  7  0.0  36.0
  8  N1  1  MOL  M8  8  0.0  72.0

[ bonds ]
; i  j  funct  r0[nm]  k[kJ/mol/nm2]
  1  2  1  0.5361  2098.6
  2  3  1  0.4893  4901.3
  3  4  1  0.5173  5897.8
  4  5  1  0.5451  2261.1
  5  6  1  0.5144  4585.2
  6  7  1  0.4795  2513.4
  7  8  1  0.4800  5929.9

[ angles ]
; i  j  k  funct  theta0[deg]  k[kJ/mol/rad2]
  1  2  3  2  144.7  61.1
  2  3  4  2  92.4  53.0
  3  4  5  2  139.6  88.7
  4  5  6  2  117.6  20.8
  5  6  7  2  115.6  64.2
  6  7  8  2  145.7  82.3

