; Synthetic MARTINI 3 molecule: POL075
; Generated by make_sample_data.py for pipeline testing

[ moleculetype ]
; name  nrexcl
POL075  1

[ atoms ]
; nr  type  resnr residue atom cgnr charge mass
  1  N3  1  MOL  M1  1  0.0  72.0
  2  SN1  1  MOL  M2  2  0.0  54.0
  3  TC2  1  MOL  M3  3  0.0  36.0
  4  C2  1  MOL  M4  4  0.0  72.0
  5  C3  1  MOL  M5  5  0.0  72.0

[ bonds ]
; i  j  funct  r0[nm]  k[kJ/mol/nm2]
  1  2  1  0.3992  3432.6
  2  3  1  0.5479  4737.3
  3  4  1  0.5398  2570.2
  4  5  1  0.4264  4218.9

[ angles ]
; i  j  k  funct  theta0[deg]  k[kJ/mol/rad2]
  1  2  3  2  94.6  15.4
  2  3  4  2  130.2  82.4
  3  4  5  2  114.6  66.4

