; Synthetic MARTINI 3 molecule: POL036
; Generated by make_sample_data.py for pipeline testing

[ moleculetype ]
; name  nrexcl
POL036  1

[ atoms ]
; nr  type  resnr residue atom cgnr charge mass
  1  C1  1  MOL  M1  1  0.0  72.0
  2  TC2  1  MOL  M2  2  0.0  36.0
  3  C2  1  MOL  M3  3  0.0  72.0
  4  SC2  1  MOL  M4  4  0.0  54.0
  5  TN1  1  MOL  M5  5  0.0  36.0
  6  TN2  1  MOL  M6  6  0.0  36.0
  7  SN2  1  MOL  M7  7  0.0  54.0
  8  TC2  1  MOL  M8  8  0.0  36.0

[ bonds ]
; i  j  funct  r0[nm]  k[kJ/mol/nm2]
  1  2  1  0.3875  5432.7
  2  3  1  0.5138  4163.2
  3  4  1  0.4920  3257.4
  4  5  1  0.4442  5286.5
  5  6  1  0.4419  3431.2
  6  7  1  0.4488  5313.0
  7  8  1  0.4170  2695.0

[ angles ]
; i  j  k  funct  theta0[deg]  k[kJ/mol/rad2]
  1  2  3  2  132.7  101.7
  2  3  4  2  96.0  40.2
  3  4  5  2  98.5  51.5
  4  5  6  2  117.0  93.6
  5  6  7  2  129.1  80.2
  6  7  8  2  111.1  103.4

