; Synthetic MARTINI 3 molecule: POL087
; Generated by make_sample_data.py for pipeline testing

[ moleculetype ]
; name  nrexcl
POL087  1

[ atoms ]
; nr  type  resnr residue atom cgnr charge mass
  1  TN1  1  MOL  M1  1  0.0  36.0
  2  C1  1  MOL  M2  2  0.0  72.0
  3  N3  1  MOL  M3  3  0.0  72.0
  4  N2  1  MOL  M4  4  0.0  72.0
  5  C4  1  MOL  M5  5  0.0  72.0
  6  SN1  1  MOL  M6  6  0.0  54.0
  7  N1  1  MOL  M7  7  0.0  72.0
  8  C1  1  MOL  M8  8  0.0  72.0
  9  TN1  1  MOL  M9  9  0.0  36.0

[ bonds ]
; i  j  funct  r0[nm]  k[kJ/mol/nm2]
  1  2  1  0.5188  3049.6
  2  3  1  0.4343  2159.7
  3  4  1  0.4398  4310.5
  4  5  1  0.4642  3329.7
  5  6  1  0.4131  2426.5
  6  7  1  0.4234  2398.0
  7  8  1  0.5033  5865.1
  8  9  1  0.5440  5460.3

[ angles ]
; i  j  k  funct  theta0[deg]  k[kJ/mol/rad2]
  1  2  3  2  126.0  88.6
  2  3  4  2  107.1  81.2
  3  4  5  2  117.3  65.6
  4  5  6  2  135.5  44.6
  5  6  7  2  109.1  112.1
  6  7  8  2  93.4  66.0
  7  8  9  2  144.8  79.1

