; Synthetic MARTINI 3 molecule: POL003
; Generated by make_sample_data.py for pipeline testing

[ moleculetype ]
; name  nrexcl
POL003  1

[ atoms ]
; nr  type  resnr residue atom cgnr charge mass
  1  SN2  1  MOL  M1  1  0.0  54.0
  2  N4  1  MOL  M2  2  0.0  72.0
  3  TC2  1  MOL  M3  3  0.0  36.0
  4  TC1  1  MOL  M4  4  0.0  36.0
  5  N2  1  MOL  M5  5  0.0  72.0
  6  C2  1  MOL  M6  6  0.0  72.0
  7  TC1  1  MOL  M7  7  0.0  36.0

[ bonds ]
; i  j  funct  r0[nm]  k[kJ/mol/nm2]
  1  2  1  0.4182  2453.9
  2  3  1  0.5349  5509.4
  3  4  1  0.4016  4639.9
  4  5  1  0.5134  4220.8
  5  6  1  0.4559  2967.4
  6  7  1  0.3686  5588.9

[ angles ]
; i  j  k  funct  theta0[deg]  k[kJ/mol/rad2]
  1  2  3  2  144.0  81.5
  2  3  4  2  110.3  51.7
  3  4  5  2  133.6  109.2
  4  5  6  2  143.2  96.9
  5  6  7  2  128.5  23.8

