; Synthetic MARTINI 3 molecule: POL091
; Generated by make_sample_data.py for pipeline testing

[ moleculetype ]
; name  nrexcl
POL091  1

[ atoms ]
; nr  type  resnr residue atom cgnr charge mass
  1  TN2  1  MOL  M1  1  0.0  36.0
  2  TC1  1  MOL  M2  2  0.0  36.0
  3  TC1  1  MOL  M3  3  0.0  36.0
  4  C2  1  MOL  M4  4  0.0  72.0
  5  C4  1  MOL  M5  5  0.0  72.0

[ bonds ]
; i  j  funct  r0[nm]  k[kJ/mol/nm2]
  1  2  1  0.4170  4283.4
  2  3  1  0.5319  2024.7
  3  4  1  0.5121  5793.5
  4  5  1  0.3683  2645.8

[ angles ]
; i  j  k  funct  theta0[deg]  k[kJ/mol/rad2]
  1  2  3  2  147.6  71.4
  2  3  4  2  90.9  42.1
  3  4  5  2  117.0  87.8

