; Synthetic MARTINI 3 molecule: POL090
; Generated by make_sample_data.py for pipeline testing

[ moleculetype ]
; name  nrexcl
POL090  1

[ atoms ]
; nr  type  resnr residue atom cgnr charge mass
  1  N3  1  MOL  M1  1  0.0  72.0
  2  TC2  1  MOL  M2  2  0.0  36.0
  3  N1  1  MOL  M3  3  0.0  72.0
  4  C4  1  MOL  M4  4  0.0  72.0
  5  N4  1  MOL  M5  5  0.0  72.0
  6  N4  1  MOL  M6  6  0.0  72.0
  7  N3  1  MOL  M7  7  0.0  72.0
  8  SC1  1  MOL  M8  8  0.0  54.0
  9  N1  1  MOL  M9  9  0.0  72.0
  10  C2  1  MOL  M10  10  0.0  72.0
  11  N1  1  MOL  M11  11  0.0  72.0
  12  C3  1  MOL  M12  12  0.0  72.0

[ bonds ]
; i  j  funct  r0[nm]  k[kJ/mol/nm2]
  1  2  1  0.4082  3877.6
  2  3  1  0.5216  3219.6
  3  4  1  0.3885  2516.3
  4  5  1  0.4096  5120.2
  5  6  1  0.4443  2909.9
  6  7  1  0.3832  3330.9
  7  8  1  0.5380  3372.1
  8  9  1  0.5476  3940.9
  9  10  1  0.3858  5564.6
  10  11  1  0.4421  4838.7
  11  12  1  0.5467  2200.7

[ angles ]
; i  j  k  funct  theta0[deg]  k[kJ/mol/rad2]
  1  2  3  2  95.8  90.6
  2  3  4  2  106.9  34.4
  3  4  5  2  92.4  17.3
  4  5  6  2  136.5  29.1
  5  6  7  2  118.1  78.6
  6  7  8  2  115.7  17.8
  7  8  9  2  137.0  16.1
  8  9  10  2  135.7  108.8
  9  10  11  2  116.0  71.2
  10  11  12  2  118.6  55.9

