; Synthetic MARTINI 3 molecule: POL034
; Generated by make_sample_data.py for pipeline testing

[ moleculetype ]
; name  nrexcl
POL034  1

[ atoms ]
; nr  type  resnr residue atom cgnr charge mass
  1  C3  1  MOL  M1  1  0.0  72.0
  2  SC2  1  MOL  M2  2  0.0  54.0
  3  TC1  1  MOL  M3  3  0.0  36.0
  4  SC2  1  MOL  M4  4  0.0  54.0
  5  C3  1  MOL  M5  5  0.0  72.0
  6  SC2  1  MOL  M6  6  0.0  54.0
  7  C1  1  MOL  M7  7  0.0  72.0
  8  SN1  1  MOL  M8  8  0.0  54.0
  9  SN2  1  MOL  M9  9  0.0  54.0

[ bonds ]
; i  j  funct  r0[nm]  k[kJ/mol/nm2]
  1  2  1  0.4044  5037.6
  2  3  1  0.4399  5106.8
  3  4  1  0.3631  3950.3
  4  5  1  0.3567  2250.6
  5  6  1  0.5313  2557.0
  6  7  1  0.4565  3644.4
  7  8  1  0.4195  5599.3
  8  9  1  0.3544  4655.2

[ angles ]
; i  j  k  funct  theta0[deg]  k[kJ/mol/rad2]
  1  2  3  2  147.8  73.8
  2  3  4  2  146.2  20.5
  3  4  5  2  115.1  42.3
  4  5  6  2  133.8  118.0
  5  6  7  2  105.4  83.7
  6  7  8  2  101.9  74.4
  7  8  9  2  117.8  117.1

