; Synthetic MARTINI 3 molecule: POL019
; Generated by make_sample_data.py for pipeline testing

[ moleculetype ]
; name  nrexcl
POL019  1

[ atoms ]
; nr  type  resnr residue atom cgnr charge mass
  1  SN1  1  MOL  M1  1  0.0  54.0
  2  N2  1  MOL  M2  2  0.0  72.0
  3  N4  1  MOL  M3  3  0.0  72.0
  4  N1  1  MOL  M4  4  0.0  72.0
  5  SC1  1  MOL  M5  5  0.0  54.0
  6  SC3  1  MOL  M6  6  0.0  54.0
  7  SN1  1  MOL  M7  7  0.0  54.0
  8  N4  1  MOL  M8  8  0.0  72.0
  9  SC2  1  MOL  M9  9  0.0  54.0

[ bonds ]
; i  j  funct  r0[nm]  k[kJ/mol/nm2]
  1  2  1  0.5132  2897.8
  2  3  1  0.3948  4147.9
  3  4  1  0.4686  4320.3
  4  5  1  0.3683  5509.8
  5  6  1  0.4031  2518.1
  6  7  1  0.5277  5822.6
  7  8  1  0.5224  5238.1
  8  9  1  0.4810  4203.4

[ angles ]
; i  j  k  funct  theta0[deg]  k[kJ/mol/rad2]
  1  2  3  2  95.2  57.9
  2  3  4  2  112.4  42.3
  3  4  5  2  133.4  67.1
  4  5  6  2  94.9  38.1
  5  6  7  2  131.0  23.0
  6  7  8  2  141.1  67.0
  7  8  9  2  118.8  77.2

