; Synthetic MARTINI 3 molecule: POL008
; Generated by make_sample_data.py for pipeline testing

[ moleculetype ]
; name  nrexcl
POL008  1

[ atoms ]
; nr  type  resnr residue atom cgnr charge mass
  1  N2  1  MOL  M1  1  0.0  72.0
  2  C3  1  MOL  M2  2  0.0  72.0
  3  TN2  1  MOL  M3  3  0.0  36.0
  4  TC1  1  MOL  M4  4  0.0  36.0
  5  TC2  1  MOL  M5  5  0.0  36.0

[ bonds ]
; i  j  funct  r0[nm]  k[kJ/mol/nm2]
  1  2  1  0.5424  3499.5
  2  3  1  0.4071  5474.4
  3  4  1  0.3947  5852.9
  4  5  1  0.3524  5879.5

[ angles ]
; i  j  k  funct  theta0[deg]  k[kJ/mol/rad2]
  1  2  3  2  92.6  108.6
  2  3  4  2  121.7  119.3
  3  4  5  2  94.4  73.2

