; Synthetic MARTINI 3 molecule: POL080
; Generated by make_sample_data.py for pipeline testing

[ moleculetype ]
; name  nrexcl
POL080  1

[ atoms ]
; nr  type  resnr residue atom cgnr charge mass
  1  TN2  1  MOL  M1  1  0.0  36.0
  2  N3  1  MOL  M2  2  0.0  72.0
  3  SC1  1  MOL  M3  3  0.0  54.0
  4  SC2  1  MOL  M4  4  0.0  54.0
  5  SC1  1  MOL  M5  5  0.0  54.0
  6  SN1  1  MOL  M6  6  0.0  54.0
  7  TN2  1  MOL  M7  7  0.0  36.0
  8  C2  1  MOL  M8  8  0.0  72.0
  9  C4  1  MOL  M9  9  0.0  72.0
  10  TN2  1  MOL  M10  10  0.0  36.0
  11  SC1  1  MOL  M11  11  0.0  54.0
  12  N1  1  MOL  M12  12  0.0  72.0

[ bonds ]
; i  j  funct  r0[nm]  k[kJ/mol/nm2]
  1  2  1  0.3740  3248.3
  2  3  1  0.5105  5445.7
  3  4  1  0.3775  5809.5
  4  5  1  0.4158  4649.3
  5  6  1  0.5004  5247.8
  6  7  1  0.5391  3251.7
  7  8  1  0.5217  2526.7
  8  9  1  0.4910  4967.9
  9  10  1  0.4855  3009.3
  10  11  1  0.5246  2675.4
  11  12  1  0.3607  4869.9

[ angles ]
; i  j  k  funct  theta0[deg]  k[kJ/mol/rad2]
  1  2  3  2  118.5  104.2
  2  3  4  2  113.0  32.7
  3  4  5  2  140.2  72.6
  4  5  6  2  101.4  90.6
  5  6  7  2  120.7  78.5
  6  7  8  2  117.7  102.0
  7  8  9  2  139.8  89.5
  8  9  10  2  96.3  103.1
  9  10  11  2  130.3  88.2
  10  11  12  2  111.8  107.3

