; Synthetic MARTINI 3 molecule: POL032
; Generated by make_sample_data.py for pipeline testing

[ moleculetype ]
; name  nrexcl
POL032  1

[ atoms ]
; nr  type  resnr residue atom cgnr charge mass
  1  C1  1  MOL  M1  1  0.0  72.0
  2  N1  1  MOL  M2  2  0.0  72.0
  3  TN1  1  MOL  M3  3  0.0  36.0
  4  TN1  1  MOL  M4  4  0.0  36.0
  5  SN2  1  MOL  M5  5  0.0  54.0
  6  N2  1  MOL  M6  6  0.0  72.0

[ bonds ]
; i  j  funct  r0[nm]  k[kJ/mol/nm2]
  1  2  1  0.4283  3650.5
  2  3  1  0.4891  2012.9
  3  4  1  0.4739  3422.0
  4  5  1  0.5088  2372.0
  5  6  1  0.4676  3923.9

[ angles ]
; i  j  k  funct  theta0[deg]  k[kJ/mol/rad2]
  1  2  3  2  128.5  21.8
  2  3  4  2  124.8  74.0
  3  4  5  2  123.6  78.4
  4  5  6  2  130.6  99.5

