; Synthetic MARTINI 3 molecule: POL068
; Generated by make_sample_data.py for pipeline testing

[ moleculetype ]
; name  nrexcl
POL068  1

[ atoms ]
; nr  type  resnr residue atom cgnr charge mass
  1  N1  1  MOL  M1  1  0.0  72.0
  2  C3  1  MOL  M2  2  0.0  72.0
  3  SC2  1  MOL  M3  3  0.0  54.0
  4  TC2  1  MOL  M4  4  0.0  36.0
  5  SN2  1  MOL  M5  5  0.0  54.0
  6  TN2  1  MOL  M6  6  0.0  36.0

[ bonds ]
; i  j  funct  r0[nm]  k[kJ/mol/nm2]
  1  2  1  0.4169  3578.3
  2  3  1  0.4560  2645.5
  3  4  1  0.4644  5221.7
  4  5  1  0.5020  2615.6
  5  6  1  0.3798  3072.7

[ angles ]
; i  j  k  funct  theta0[deg]  k[kJ/mol/rad2]
  1  2  3  2  111.7  57.9
  2  3  4  2  130.8  21.0
  3  4  5  2  92.1  56.2
  4  5  6  2  131.8  35.3

