; Synthetic MARTINI 3 molecule: POL010
; Generated by make_sample_data.py for pipeline testing

[ moleculetype ]
; name  nrexcl
POL010  1

[ atoms ]
; nr  type  resnr residue atom cgnr charge mass
  1  SC2  1  MOL  M1  1  0.0  54.0
  2  SN1  1  MOL  M2  2  0.0  54.0
  3  TN1  1  MOL  M3  3  0.0  36.0
  4  TN1  1  MOL  M4  4  0.0  36.0
  5  SC3  1  MOL  M5  5  0.0  54.0
  6  N4  1  MOL  M6  6  0.0  72.0
  7  C2  1  MOL  M7  7  0.0  72.0
  8  SC2  1  MOL  M8  8  0.0  54.0

[ bonds ]
; i  j  funct  r0[nm]  k[kJ/mol/nm2]
  1  2  1  0.3885  2163.5
  2  3  1  0.3838  3114.4
  3  4  1  0.3854  2354.8
  4  5  1  0.3741  3843.1
  5  6  1  0.3913  3457.1
  6  7  1  0.4507  4761.6
  7  8  1  0.3579  5197.6

[ angles ]
; i  j  k  funct  theta0[deg]  k[kJ/mol/rad2]
  1  2  3  2  127.7  23.6
  2  3  4  2  142.4  111.7
  3  4  5  2  93.7  44.1
  4  5  6  2  138.4  93.6
  5  6  7  2  101.1  37.0
  6  7  8  2  112.2  65.9

