; Synthetic MARTINI 3 molecule: POL002
; Generated by make_sample_data.py for pipeline testing

[ moleculetype ]
; name  nrexcl
POL002  1

[ atoms ]
; nr  type  resnr residue atom cgnr charge mass
  1  N3  1  MOL  M1  1  0.0  72.0
  2  SC3  1  MOL  M2  2  0.0  54.0
  3  C3  1  MOL  M3  3  0.0  72.0
  4  C2  1  MOL  M4  4  0.0  72.0
  5  TC1  1  MOL  M5  5  0.0  36.0
  6  N1  1  MOL  M6  6  0.0  72.0
  7  C3  1  MOL  M7  7  0.0  72.0
  8  TC1  1  MOL  M8  8  0.0  36.0
  9  C4  1  MOL  M9  9  0.0  72.0

[ bonds ]
; i  j  funct  r0[nm]  k[kJ/mol/nm2]
  1  2  1  0.4136  2440.2
  2  3  1  0.3956  3708.4
  3  4  1  0.5136  5442.9
  4  5  1  0.3514  4043.0
  5  6  1  0.4335  2888.4
  6  7  1  0.3740  3350.5
  7  8  1  0.5386  3292.8
  8  9  1  0.4538  4812.1

[ angles ]
; i  j  k  funct  theta0[deg]  k[kJ/mol/rad2]
  1  2  3  2  111.8  117.0
  2  3  4  2  147.7  41.4
  3  4  5  2  119.8  46.6
  4  5  6  2  107.1  18.9
  5  6  7  2  126.6  67.8
  6  7  8  2  93.1  44.3
  7  8  9  2  144.5  40.2

