; Synthetic MARTINI 3 molecule: POL053
; Generated by make_sample_data.py for pipeline testing

[ moleculetype ]
; name  nrexcl
POL053  1

[ atoms ]
; nr  type  resnr residue atom cgnr charge mass
  1  TN2  1  MOL  M1  1  0.0  36.0
  2  N1  1  MOL  M2  2  0.0  72.0
  3  SN2  1  MOL  M3  3  0.0  54.0
  4  TN2  1  MOL  M4  4  0.0  36.0
  5  SN1  1  MOL  M5  5  0.0  54.0
  6  C4  1  MOL  M6  6  0.0  72.0
  7  C4  1  MOL  M7  7  0.0  72.0
  8  SC3  1  MOL  M8  8  0.0  54.0
  9  SN1  1  MOL  M9  9  0.0  54.0
  10  SN2  1  MOL  M10  10  0.0  54.0
  11  TC1  1  MOL  M11  11  0.0  36.0

[ bonds ]
; i  j  funct  r0[nm]  k[kJ/mol/nm2]
  1  2  1  0.4669  4153.3
  2  3  1  0.4038  3473.8
  3  4  1  0.5291  4665.9
  4  5  1  0.5075  3817.4
  5  6  1  0.4760  2993.5
  6  7  1  0.4911  3710.4
  7  8  1  0.4385  4597.3
  8  9  1  0.5373  2256.0
  9  10  1  0.5149  3169.5
  10  11  1  0.4388  2087.7

[ angles ]
; i  j  k  funct  theta0[deg]  k[kJ/mol/rad2]
  1  2  3  2  108.1  67.8
  2  3  4  2  93.4  66.6
  3  4  5  2  145.6  26.1
  4  5  6  2  135.9  58.0
  5  6  7  2  129.3  42.3
  6  7  8  2  99.6  31.8
  7  8  9  2  94.2  34.5
  8  9  10  2  129.9  107.6
  9  10  11  2  138.8  86.9

