; Synthetic MARTINI 3 molecule: POL042
; Generated by make_sample_data.py for pipeline testing

[ moleculetype ]
; name  nrexcl
POL042  1

[ atoms ]
; nr  type  resnr residue atom cgnr charge mass
  1  C1  1  MOL  M1  1  0.0  72.0
  2  SC1  1  MOL  M2  2  0.0  54.0
  3  SN1  1  MOL  M3  3  0.0  54.0
  4  SC1  1  MOL  M4  4  0.0  54.0
  5  C3  1  MOL  M5  5  0.0  72.0
  6  TN1  1  MOL  M6  6  0.0  36.0
  7  TC2  1  MOL  M7  7  0.0  36.0
  8  N2  1  MOL  M8  8  0.0  72.0
  9  N4  1  MOL  M9  9  0.0  72.0
  10  C3  1  MOL  M10  10  0.0  72.0
  11  N2  1  MOL  M11  11  0.0  72.0
  12  N4  1  MOL  M12  12  0.0  72.0

[ bonds ]
; i  j  funct  r0[nm]  k[kJ/mol/nm2]
  1  2  1  0.4661  2556.8
  2  3  1  0.4388  4504.9
  3  4  1  0.4478  3607.1
  4  5  1  0.5488  5521.3
  5  6  1  0.4747  4277.5
  6  7  1  0.4741  2805.2
  7  8  1  0.4290  2157.8
  8  9  1  0.4451  4172.1
  9  10  1  0.3955  5856.1
  10  11  1  0.5319  4888.6
  11  12  1  0.4567  5479.9

[ angles ]
; i  j  k  funct  theta0[deg]  k[kJ/mol/rad2]
  1  2  3  2  97.8  98.0
  2  3  4  2  97.5  98.4
  3  4  5  2  106.5  107.1
  4  5  6  2  146.6  30.6
  5  6  7  2  117.8  118.0
  6  7  8  2  119.0  105.7
  7  8  9  2  125.3  54.4
  8  9  10  2  107.1  36.3
  9  10  11  2  135.7  55.6
  10  11  12  2  120.7  66.7

