; Synthetic MARTINI 3 molecule: POL033
; Generated by make_sample_data.py for pipeline testing

[ moleculetype ]
; name  nrexcl
POL033  1

[ atoms ]
; nr  type  resnr residue atom cgnr charge mass
  1  SC1  1  MOL  M1  1  0.0  54.0
  2  N1  1  MOL  M2  2  0.0  72.0
  3  C3  1  MOL  M3  3  0.0  72.0
  4  TC1  1  MOL  M4  4  0.0  36.0
  5  C4  1  MOL  M5  5  0.0  72.0
  6  SN1  1  MOL  M6  6  0.0  54.0
  7  TC1  1  MOL  M7  7  0.0  36.0

[ bonds ]
; i  j  funct  r0[nm]  k[kJ/mol/nm2]
  1  2  1  0.4696  4942.7
  2  3  1  0.5497  5732.5
  3  4  1  0.4785  3685.0
  4  5  1  0.4772  5142.6
  5  6  1  0.3737  3639.6
  6  7  1  0.5180  3535.3

[ angles ]
; i  j  k  funct  theta0[deg]  k[kJ/mol/rad2]
  1  2  3  2  124.3  76.7
  2  3  4  2  101.1  53.0
  3  4  5  2  110.1  17.8
  4  5  6  2  91.5  102.3
  5  6  7  2  106.4  69.4

