; Synthetic MARTINI 3 molecule: POL029
; Generated by make_sample_data.py for pipeline testing

[ moleculetype ]
; name  nrexcl
POL029  1

[ atoms ]
; nr  type  resnr residue atom cgnr charge mass
  1  TC1  1  MOL  M1  1  0.0  36.0
  2  SN1  1  MOL  M2  2  0.0  54.0
  3  TN1  1  MOL  M3  3  0.0  36.0
  4  TC1  1  MOL  M4  4  0.0  36.0
  5  TN1  1  MOL  M5  5  0.0  36.0
  6  TN1  1  MOL  M6  6  0.0  36.0

[ bonds ]
; i  j  funct  r0[nm]  k[kJ/mol/nm2]
  1  2  1  0.4419  5140.1
  2  3  1  0.5284  5821.3
  3  4  1  0.5074  3261.6
  4  5  1  0.4876  3750.4
  5  6  1  0.4009  5363.5

[ angles ]
; i  j  k  funct  theta0[deg]  k[kJ/mol/rad2]
  1  2  3  2  92.3  109.7
  2  3  4  2  117.7  81.9
  3  4  5  2  129.6  109.0
  4  5  6  2  128.2  79.5

