; Synthetic MARTINI 3 molecule: POL023
; Generated by make_sample_data.py for pipeline testing

[ moleculetype ]
; name  nrexcl
POL023  1

[ atoms ]
; nr  type  resnr residue atom cgnr charge mass
  1  SN1  1  MOL  M1  1  0.0  54.0
  2  C2  1  MOL  M2  2  0.0  72.0
  3  SC3  1  MOL  M3  3  0.0  54.0
  4  SN1  1  MOL  M4  4  0.0  54.0
  5  N4  1  MOL  M5  5  0.0  72.0
  6  C1  1  MOL  M6  6  0.0  72.0
  7  N4  1  MOL  M7  7  0.0  72.0
  8  TN1  1  MOL  M8  8  0.0  36.0
  9  C1  1  MOL  M9  9  0.0  72.0
  10  N3  1  MOL  M10  10  0.0  72.0
  11  N1  1  MOL  M11  11  0.0  72.0
  12  N4  1  MOL  M12  12  0.0  72.0

[ bonds ]
; i  j  funct  r0[nm]  k[kJ/mol/nm2]
  1  2  1  0.4932  5636.1
  2  3  1  0.3859  2950.2
  3  4  1  0.5443  2723.9
  4  5  1  0.5209  3969.1
  5  6  1  0.3994  5483.0
  6  7  1  0.4391  4059.3
  7  8  1  0.4218  4371.8
  8  9  1  0.3827  3564.3
  9  10  1  0.5439  3032.5
  10  11  1  0.4813  3300.8
  11  12  1  0.5047  2523.5

[ angles ]
; i  j  k  funct  theta0[deg]  k[kJ/mol/rad2]
  1  2  3  2  148.2  62.6
  2  3  4  2  104.2  22.7
  3  4  5  2  100.2  69.6
  4  5  6  2  110.2  102.0
  5  6  7  2  115.9  41.1
  6  7  8  2  127.0  89.2
  7  8  9  2  100.0  32.6
  8  9  10  2  92.2  92.3
  9  10  11  2  129.8  64.8
  10  11  12  2  140.7  99.6

