; Synthetic MARTINI 3 molecule: POL093
; Generated by make_sample_data.py for pipeline testing

[ moleculetype ]
; name  nrexcl
POL093  1

[ atoms ]
; nr  type  resnr residue atom cgnr charge mass
  1  TN2  1  MOL  M1  1  0.0  36.0
  2  TN1  1  MOL  M2  2  0.0  36.0
  3  SC1  1  MOL  M3  3  0.0  54.0
  4  TN2  1  MOL  M4  4  0.0  36.0
  5  SN2  1  MOL  M5  5  0.0  54.0
  6  TC2  1  MOL  M6  6  0.0  36.0
  7  SC3  1  MOL  M7  7  0.0  54.0
  8  C4  1  MOL  M8  8  0.0  72.0
  9  N2  1  MOL  M9  9  0.0  72.0
  10  SC2  1  MOL  M10  10  0.0  54.0
  11  SN2  1  MOL  M11  11  0.0  54.0
  12  TC2  1  MOL  M12  12  0.0  36.0

[ bonds ]
; i  j  funct  r0[nm]  k[kJ/mol/nm2]
  1  2  1  0.4421  2870.4
  2  3  1  0.3768  5813.2
  3  4  1  0.3645  2796.4
  4  5  1  0.4196  4480.9
  5  6  1  0.4590  2502.6
  6  7  1  0.4079  2955.0
  7  8  1  0.3927  3644.6
  8  9  1  0.4908  2869.8
  9  10  1  0.4233  3563.7
  10  11  1  0.5453  5818.7
  11  12  1  0.5100  2966.6

[ angles ]
; i  j  k  funct  theta0[deg]  k[kJ/mol/rad2]
  1  2  3  2  94.1  48.3
  2  3  4  2  106.0  68.1
  3  4  5  2  136.7  105.1
  4  5  6  2  140.7  52.8
  5  6  7  2  131.2  47.8
  6  7  8  2  93.7  88.7
  7  8  9  2  90.6  58.0
  8  9  10  2  109.8  87.8
  9  10  11  2  136.0  46.9
  10  11  12  2  138.7  45.9

