; Synthetic MARTINI 3 molecule: POL022
; Generated by make_sample_data.py for pipeline testing

[ moleculetype ]
; name  nrexcl
POL022  1

[ atoms ]
; nr  type  resnr residue atom cgnr charge mass
  1  SN2  1  MOL  M1  1  0.0  54.0
  2  TC2  1  MOL  M2  2  0.0  36.0
  3  TC1  1  MOL  M3  3  0.0  36.0
  4  TC2  1  MOL  M4  4  0.0  36.0
  5  TN2  1  MOL  M5  5  0.0  36.0
  6  TN1  1  MOL  M6  6  0.0  36.0
  7  TC1  1  MOL  M7  7  0.0  36.0
  8  TC2  1  MOL  M8  8  0.0  36.0
  9  SN2  1  MOL  M9  9  0.0  54.0
  10  C3  1  MOL  M10  10  0.0  72.0
  11  N1  1  MOL  M11  11  0.0  72.0
  12  TC1  1  MOL  M12  12  0.0  36.0

[ bonds ]
; i  j  funct  r0[nm]  k[kJ/mol/nm2]
  1  2  1  0.4635  4757.9
  2  3  1  0.5101  2800.6
  3  4  1  0.3835  2418.3
  4  5  1  0.4773  4825.9
  5  6  1  0.3563  5744.8
  6  7  1  0.3604  4165.2
  7  8  1  0.4918  5483.9
  8  9  1  0.4928  5206.9
  9  10  1  0.4179  5259.3
  10  11  1  0.3660  5579.3
  11  12  1  0.4595  5269.2

[ angles ]
; i  j  k  funct  theta0[deg]  k[kJ/mol/rad2]
  1  2  3  2  117.1  82.6
  2  3  4  2  121.6  91.8
  3  4  5  2  94.9  21.3
  4  5  6  2  104.8  31.8
  5  6  7  2  142.3  38.0
  6  7  8  2  148.6  50.4
  7  8  9  2  100.9  97.9
  8  9  10  2  129.5  67.3
  9  10  11  2  123.3  90.5
  10  11  12  2  103.7  119.6

