; Synthetic MARTINI 3 molecule: POL056
; Generated by make_sample_data.py for pipeline testing

[ moleculetype ]
; name  nrexcl
POL056  1

[ atoms ]
; nr  type  resnr residue atom cgnr charge mass
  1  TN2  1  MOL  M1  1  0.0  36.0
  2  SC3  1  MOL  M2  2  0.0  54.0
  3  N4  1  MOL  M3  3  0.0  72.0
  4  SN1  1  MOL  M4  4  0.0  54.0
  5  SN2  1  MOL  M5  5  0.0  54.0
  6  N2  1  MOL  M6  6  0.0  72.0

[ bonds ]
; i  j  funct  r0[nm]  k[kJ/mol/nm2]
  1  2  1  0.4042  2809.0
  2  3  1  0.4128  2966.0
  3  4  1  0.3930  3699.4
  4  5  1  0.5316  4028.2
  5  6  1  0.3876  2307.9

[ angles ]
; i  j  k  funct  theta0[deg]  k[kJ/mol/rad2]
  1  2  3  2  131.8  55.2
  2  3  4  2  139.3  84.2
  3  4  5  2  137.8  43.6
  4  5  6  2  131.5  42.7

