; Synthetic MARTINI 3 molecule: POL079
; Generated by make_sample_data.py for pipeline testing

[ moleculetype ]
; name  nrexcl
POL079  1

[ atoms ]
; nr  type  resnr residue atom cgnr charge mass
  1  N3  1  MOL  M1  1  0.0  72.0
  2  N3  1  MOL  M2  2  0.0  72.0
  3  SN2  1  MOL  M3  3  0.0  54.0
  4  SC1  1  MOL  M4  4  0.0  54.0
  5  C3  1  MOL  M5  5  0.0  72.0

[ bonds ]
; i  j  funct  r0[nm]  k[kJ/mol/nm2]
  1  2  1  0.5369  3213.5
  2  3  1  0.5064  5063.4
  3  4  1  0.4883  5862.6
  4  5  1  0.4287  2522.9

[ angles ]
; i  j  k  funct  theta0[deg]  k[kJ/mol/rad2]
  1  2  3  2  130.3  91.6
  2  3  4  2  124.5  36.7
  3  4  5  2  120.3  47.8

