; Synthetic MARTINI 3 molecule: POL059
; Generated by make_sample_data.py for pipeline testing

[ moleculetype ]
; name  nrexcl
POL059  1

[ atoms ]
; nr  type  resnr residue atom cgnr charge mass
  1  C1  1  MOL  M1  1  0.0  72.0
  2  SN2  1  MOL  M2  2  0.0  54.0
  3  C3  1  MOL  M3  3  0.0  72.0
  4  N2  1  MOL  M4  4  0.0  72.0
  5  SN1  1  MOL  M5  5  0.0  54.0
  6  N4  1  MOL  M6  6  0.0  72.0
  7  SN1  1  MOL  M7  7  0.0  54.0
  8  N1  1  MOL  M8  8  0.0  72.0
  9  C4  1  MOL  M9  9  0.0  72.0
  10  N4  1  MOL  M10  10  0.0  72.0
  11  C1  1  MOL  M11  11  0.0  72.0

[ bonds ]
; i  j  funct  r0[nm]  k[kJ/mol/nm2]
  1  2  1  0.5494  2120.1
  2  3  1  0.5295  4490.5
  3  4  1  0.5447  3860.0
  4  5  1  0.5195  2249.6
  5  6  1  0.4171  2268.1
  6  7  1  0.5451  5267.9
  7  8  1  0.5205  5751.9
  8  9  1  0.3670  3542.4
  9  10  1  0.3642  2843.2
  10  11  1  0.3959  3876.4

[ angles ]
; i  j  k  funct  theta0[deg]  k[kJ/mol/rad2]
  1  2  3  2  106.1  25.6
  2  3  4  2  100.0  30.5
  3  4  5  2  148.4  94.7
  4  5  6  2  148.1  61.2
  5  6  7  2  106.7  98.8
  6  7  8  2  109.6  46.4
  7  8  9  2  104.0  28.6
  8  9  10  2  105.4  52.3
  9  10  11  2  130.4  21.6

