; Synthetic MARTINI 3 molecule: POL015
; Generated by make_sample_data.py for pipeline testing

[ moleculetype ]
; name  nrexcl
POL015  1

[ atoms ]
; nr  type  resnr residue atom cgnr charge mass
  1  SN1  1  MOL  M1  1  0.0  54.0
  2  C1  1  MOL  M2  2  0.0  72.0
  3  C4  1  MOL  M3  3  0.0  72.0
  4  C3  1  MOL  M4  4  0.0  72.0
  5  SC1  1  MOL  M5  5  0.0  54.0
  6  C2  1  MOL  M6  6  0.0  72.0
  7  N3  1  MOL  M7  7  0.0  72.0
  8  SC1  1  MOL  M8  8  0.0  54.0
  9  SN1  1  MOL  M9  9  0.0  54.0
  10  SC1  1  MOL  M10  10  0.0  54.0
  11  C2  1  MOL  M11  11  0.0  72.0
  12  N1  1  MOL  M12  12  0.0  72.0

[ bonds ]
; i  j  funct  r0[nm]  k[kJ/mol/nm2]
  1  2  1  0.4302  4238.6
  2  3  1  0.3810  2727.7
  3  4  1  0.5224  5784.5
  4  5  1  0.4247  3083.0
  5  6  1  0.4788  3634.9
  6  7  1  0.3551  2624.6
  7  8  1  0.4932  4635.7
  8  9  1  0.3554  2887.9
  9  10  1  0.3962  4687.6
  10  11  1  0.3539  2416.4
  11  12  1  0.5100  2714.2

[ angles ]
; i  j  k  funct  theta0[deg]  k[kJ/mol/rad2]
  1  2  3  2  129.2  40.0
  2  3  4  2  96.0  40.5
  3  4  5  2  133.3  104.8
  4  5  6  2  139.8  56.7
  5  6  7  2  130.1  36.5
  6  7  8  2  107.6  109.1
  7  8  9  2  90.8  24.0
  8  9  10  2  102.5  17.8
  9  10  11  2  100.9  76.2
  10  11  12  2  115.3  108.7

