; Synthetic MARTINI 3 molecule: POL062
; Generated by make_sample_data.py for pipeline testing

[ moleculetype ]
; name  nrexcl
POL062  1

[ atoms ]
; nr  type  resnr residue atom cgnr charge mass
  1  C2  1  MOL  M1  1  0.0  72.0
  2  C2  1  MOL  M2  2  0.0  72.0
  3  N3  1  MOL  M3  3  0.0  72.0
  4  N1  1  MOL  M4  4  0.0  72.0
  5  C3  1  MOL  M5  5  0.0  72.0
  6  C3  1  MOL  M6  6  0.0  72.0
  7  TN2  1  MOL  M7  7  0.0  36.0
  8  N4  1  MOL  M8  8  0.0  72.0
  9  SN2  1  MOL  M9  9  0.0  54.0
  10  C2  1  MOL  M10  10  0.0  72.0
  11  SN2  1  MOL  M11  11  0.0  54.0
  12  SC3  1  MOL  M12  12  0.0  54.0

[ bonds ]
; i  j  funct  r0[nm]  k[kJ/mol/nm2]
  1  2  1  0.5103  3568.4
  2  3  1  0.5002  2501.9
  3  4  1  0.5046  2947.7
  4  5  1  0.4855  4263.1
  5  6  1  0.5358  3549.3
  6  7  1  0.3632  2076.6
  7  8  1  0.5154  4098.9
  8  9  1  0.5050  2937.7
  9  10  1  0.4190  2120.4
  10  11  1  0.5423  4671.5
  11  12  1  0.5366  3062.0

[ angles ]
; i  j  k  funct  theta0[deg]  k[kJ/mol/rad2]
  1  2  3  2  126.7  86.2
  2  3  4  2  109.1  104.1
  3  4  5  2  146.8  107.9
  4  5  6  2  134.3  44.1
  5  6  7  2  106.9  116.2
  6  7  8  2  90.6  90.2
  7  8  9  2  132.4  80.4
  8  9  10  2  149.4  47.7
  9  10  11  2  110.4  23.3
  10  11  12  2  116.6  42.4

