; Synthetic MARTINI 3 molecule: POL086
; Generated by make_sample_data.py for pipeline testing

[ moleculetype ]
; name  nrexcl
POL086  1

[ atoms ]
; nr  type  resnr residue atom cgnr charge mass
  1  TN2  1  MOL  M1  1  0.0  36.0
  2  C2  1  MOL  M2  2  0.0  72.0
  3  C2  1  MOL  M3  3  0.0  72.0
  4  C2  1  MOL  M4  4  0.0  72.0
  5  SC1  1  MOL  M5  5  0.0  54.0
  6  N2  1  MOL  M6  6  0.0  72.0
  7  TN1  1  MOL  M7  7  0.0  36.0
  8  TN2  1  MOL  M8  8  0.0  36.0
  9  SN2  1  MOL  M9  9  0.0  54.0
  10  SC1  1  MOL  M10  10  0.0  54.0
  11  TN2  1  MOL  M11  11  0.0  36.0

[ bonds ]
; i  j  funct  r0[nm]  k[kJ/mol/nm2]
  1  2  1  0.4106  4129.9
  2  3  1  0.4629  4402.3
  3  4  1  0.3833  3518.9
  4  5  1  0.4734  5879.3
  5  6  1  0.4955  5690.4
  6  7  1  0.5024  4366.9
  7  8  1  0.3884  4666.7
  8  9  1  0.4747  4409.9
  9  10  1  0.4480  4114.6
  10  11  1  0.4169  4077.3

[ angles ]
; i  j  k  funct  theta0[deg]  k[kJ/mol/rad2]
  1  2  3  2  101.9  99.5
  2  3  4  2  101.1  23.9
  3  4  5  2  116.2  84.1
  4  5  6  2  116.3  44.1
  5  6  7  2  123.5  51.4
  6  7  8  2  146.0  111.9
  7  8  9  2  120.1  49.4
  8  9  10  2  134.2  18.9
  9  10  11  2  118.5  50.3

