; Synthetic MARTINI 3 molecule: POL089
; Generated by make_sample_data.py for pipeline testing

[ moleculetype ]
; name  nrexcl
POL089  1

[ atoms ]
; nr  type  resnr residue atom cgnr charge mass
  1  TN1  1  MOL  M1  1  0.0  36.0
  2  TN2  1  MOL  M2  2  0.0  36.0
  3  N4  1  MOL  M3  3  0.0  72.0
  4  N2  1  MOL  M4  4  0.0  72.0
  5  SC2  1  MOL  M5  5  0.0  54.0
  6  SN2  1  MOL  M6  6  0.0  54.0
  7  N2  1  MOL  M7  7  0.0  72.0
  8  N3  1  MOL  M8  8  0.0  72.0
  9  TC2  1  MOL  M9  9  0.0  36.0
  10  TN1  1  MOL  M10  10  0.0  36.0

[ bonds ]
; i  j  funct  r0[nm]  k[kJ/mol/nm2]
  1  2  1  0.5239  2722.6
  2  3  1  0.5395  2875.1
  3  4  1  0.4152  5024.8
  4  5  1  0.4288  4432.8
  5  6  1  0.4389  4969.5
  6  7  1  0.3957  2233.8
  7  8  1  0.4100  3897.2
  8  9  1  0.3836  3419.2
  9  10  1  0.4300  2229.6

[ angles ]
; i  j  k  funct  theta0[deg]  k[kJ/mol/rad2]
  1  2  3  2  125.0  107.9
  2  3  4  2  99.1  77.8
  3  4  5  2  129.9  59.0
  4  5  6  2  132.1  58.1
  5  6  7  2  120.3  15.8
  6  7  8  2  131.5  84.4
  7  8  9  2  92.3  53.7
  8  9  10  2  148.7  59.2

