; Synthetic MARTINI 3 molecule: POL043
; Generated by make_sample_data.py for pipeline testing

[ moleculetype ]
; name  nrexcl
POL043  1

[ atoms ]
; nr  type  resnr residue atom cgnr charge mass
  1  C4  1  MOL  M1  1  0.0  72.0
  2  C4  1  MOL  M2  2  0.0  72.0
  3  SN2  1  MOL  M3  3  0.0  54.0
  4  SC2  1  MOL  M4  4  0.0  54.0
  5  N1  1  MOL  M5  5  0.0  72.0
  6  C1  1  MOL  M6  6  0.0  72.0
  7  C2  1  MOL  M7  7  0.0  72.0
  8  N2  1  MOL  M8  8  0.0  72.0
  9  C2  1  MOL  M9  9  0.0  72.0
  10  N1  1  MOL  M10  10  0.0  72.0
  11  N3  1  MOL  M11  11  0.0  72.0

[ bonds ]
; i  j  funct  r0[nm]  k[kJ/mol/nm2]
  1  2  1  0.4875  4890.8
  2  3  1  0.4885  2537.7
  3  4  1  0.4099  3434.9
  4  5  1  0.5109  3115.0
  5  6  1  0.3921  5829.8
  6  7  1  0.3518  5991.3
  7  8  1  0.4854  5313.9
  8  9  1  0.4089  2057.3
  9  10  1  0.4976  5336.6
  10  11  1  0.4981  2571.4

[ angles ]
; i  j  k  funct  theta0[deg]  k[kJ/mol/rad2]
  1  2  3  2  135.2  95.7
  2  3  4  2  129.5  95.4
  3  4  5  2  140.8  79.4
  4  5  6  2  95.3  66.2
  5  6  7  2  94.7  57.8
  6  7  8  2  114.4  21.9
  7  8  9  2  110.9  26.7
  8  9  10  2  138.5  114.5
  9  10  11  2  94.3  115.3

