; Synthetic MARTINI 3 molecule: POL049
; Generated by make_sample_data.py for pipeline testing

[ moleculetype ]
; name  nrexcl
POL049  1

[ atoms ]
; nr  type  resnr residue atom cgnr charge mass
  1  SN2  1  MOL  M1  1  0.0  54.0
  2  N3  1  MOL  M2  2  0.0  72.0
  3  SN1  1  MOL  M3  3  0.0  54.0
  4  SC1  1  MOL  M4  4  0.0  54.0
  5  SN1  1  MOL  M5  5  0.0  54.0
  6  C4  1  MOL  M6  6  0.0  72.0
  7  TN1  1  MOL  M7  7  0.0  36.0
  8  SN1  1  MOL  M8  8  0.0  54.0
  9  TC2  1  MOL  M9  9  0.0  36.0
  10  C2  1  MOL  M10  10  0.0  72.0
  11  N3  1  MOL  M11  11  0.0  72.0

[ bonds ]
; i  j  funct  r0[nm]  k[kJ/mol/nm2]
  1  2  1  0.3638  5763.1
  2  3  1  0.4514  3637.6
  3  4  1  0.5122  5343.3
  4  5  1  0.4164  4774.5
  5  6  1  0.5042  4618.6
  6  7  1  0.3803  5503.5
  7  8  1  0.4578  3129.9
  8  9  1  0.4350  2150.3
  9  10  1  0.3756  5062.2
  10  11  1  0.3500  3666.3

[ angles ]
; i  j  k  funct  theta0[deg]  k[kJ/mol/rad2]
  1  2  3  2  121.4  20.7
  2  3  4  2  148.4  38.7
  3  4  5  2  108.3  46.9
  4  5  6  2  103.8  15.2
  5  6  7  2  133.8  116.5
  6  7  8  2  103.5  84.6
  7  8  9  2  134.5  104.1
  8  9  10  2  115.4  46.8
  9  10  11  2  109.5  89.8

