; Synthetic MARTINI 3 molecule: POL097
; Generated by make_sample_data.py for pipeline testing

[ moleculetype ]
; name  nrexcl
POL097  1

[ atoms ]
; nr  type  resnr residue atom cgnr charge mass
  1  TN2  1  MOL  M1  1  0.0  36.0
  2  SN2  1  MOL  M2  2  0.0  54.0
  3  C2  1  MOL  M3  3  0.0  72.0
  4  SN2  1  MOL  M4  4  0.0  54.0
  5  SC1  1  MOL  M5  5  0.0  54.0
  6  TN2  1  MOL  M6  6  0.0  36.0

[ bonds ]
; i  j  funct  r0[nm]  k[kJ/mol/nm2]
  1  2  1  0.3971  3977.5
  2  3  1  0.5330  2846.9
  3  4  1  0.3788  5035.9
  4  5  1  0.4501  5647.1
  5  6  1  0.3793  4583.7

[ angles ]
; i  j  k  funct  theta0[deg]  k[kJ/mol/rad2]
  1  2  3  2  104.0  31.5
  2  3  4  2  131.0  77.3
  3  4  5  2  135.3  47.5
  4  5  6  2  116.9  57.6

