; Synthetic MARTINI 3 molecule: POL006
; Generated by make_sample_data.py for pipeline testing

[ moleculetype ]
; name  nrexcl
POL006  1

[ atoms ]
; nr  type  resnr residue atom cgnr charge mass
  1  SC2  1  MOL  M1  1  0.0  54.0
  2  TN2  1  MOL  M2  2  0.0  36.0
  3  C1  1  MOL  M3  3  0.0  72.0
  4  N2  1  MOL  M4  4  0.0  72.0
  5  TN1  1  MOL  M5  5  0.0  36.0
  6  C1  1  MOL  M6  6  0.0  72.0
  7  C4  1  MOL  M7  7  0.0  72.0
  8  N3  1  MOL  M8  8  0.0  72.0
  9  N1  1  MOL  M9  9  0.0  72.0
  10  TC1  1  MOL  M10  10  0.0  36.0

[ bonds ]
; i  j  funct  r0[nm]  k[kJ/mol/nm2]
  1  2  1  0.4483  3893.9
  2  3  1  0.3846  3735.4
  3  4  1  0.4297  4463.4
  4  5  1  0.4770  2181.2
  5  6  1  0.4249  4503.4
  6  7  1  0.4506  5426.0
  7  8  1  0.4817  2651.7
  8  9  1  0.3641  4569.7
  9  10  1  0.3553  4343.1

[ angles ]
; i  j  k  funct  theta0[deg]  k[kJ/mol/rad2]
  1  2  3  2  146.4  75.4
  2  3  4  2  113.3  82.5
  3  4  5  2  117.5  72.3
  4  5  6  2  146.5  55.5
  5  6  7  2  147.7  110.1
  6  7  8  2  101.7  22.3
  7  8  9  2  96.0  16.9
  8  9  10  2  95.7  86.7

