; Synthetic MARTINI 3 molecule: POL076
; Generated by make_sample_data.py for pipeline testing

[ moleculetype ]
; name  nrexcl
POL076  1

[ atoms ]
; nr  type  resnr residue atom cgnr charge mass
  1  TC1  1  MOL  M1  1  0.0  36.0
  2  N3  1  MOL  M2  2  0.0  72.0
  3  N3  1  MOL  M3  3  0.0  72.0
  4  N4  1  MOL  M4  4  0.0  72.0
  5  C2  1  MOL  M5  5  0.0  72.0
  6  SC1  1  MOL  M6  6  0.0  54.0

[ bonds ]
; i  j  funct  r0[nm]  k[kJ/mol/nm2]
  1  2  1  0.3949  3597.3
  2  3  1  0.4319  5912.9
  3  4  1  0.3862  5196.6
  4  5  1  0.4168  4923.5
  5  6  1  0.4340  4313.4

[ angles ]
; i  j  k  funct  theta0[deg]  k[kJ/mol/rad2]
  1  2  3  2  140.0  99.4
  2  3  4  2  142.0  21.3
  3  4  5  2  131.5  29.7
  4  5  6  2  114.9  72.6

