; Synthetic MARTINI 3 molecule: POL004
; Generated by make_sample_data.py for pipeline testing

[ moleculetype ]
; name  nrexcl
POL004  1

[ atoms ]
; nr  type  resnr residue atom cgnr charge mass
  1  SN2  1  MOL  M1  1  0.0  54.0
  2  SC1  1  MOL  M2  2  0.0  54.0
  3  TC2  1  MOL  M3  3  0.0  36.0
  4  SC1  1  MOL  M4  4  0.0  54.0
  5  TC1  1  MOL  M5  5  0.0  36.0
  6  TC2  1  MOL  M6  6  0.0  36.0
  7  SN1  1  MOL  M7  7  0.0  54.0
  8  N4  1  MOL  M8  8  0.0  72.0
  9  N3  1  MOL  M9  9  0.0  72.0
  10  TC1  1  MOL  M10  10  0.0  36.0
  11  SC1  1  MOL  M11  11  0.0  54.0

[ bonds ]
; i  j  funct  r0[nm]  k[kJ/mol/nm2]
  1  2  1  0.3687  3470.9
  2  3  1  0.4030  2976.0
  3  4  1  0.5446  3572.4
  4  5  1  0.5284  4524.6
  5  6  1  0.5090  4010.5
  6  7  1  0.4654  3970.1
  7  8  1  0.3890  4889.8
  8  9  1  0.4062  2097.3
  9  10  1  0.4791  2708.4
  10  11  1  0.5381  5815.7

[ angles ]
; i  j  k  funct  theta0[deg]  k[kJ/mol/rad2]
  1  2  3  2  144.9  53.9
  2  3  4  2  90.9  112.5
  3  4  5  2  115.7  116.5
  4  5  6  2  147.8  104.6
  5  6  7  2  107.7  55.4
  6  7  8  2  141.1  48.3
  7  8  9  2  100.2  73.5
  8  9  10  2  146.2  88.1
  9  10  11  2  124.2  25.2

