; Synthetic MARTINI 3 molecule: POL078
; Generated by make_sample_data.py for pipeline testing

[ moleculetype ]
; name  nrexcl
POL078  1

[ atoms ]
; nr  type  resnr residue atom cgnr charge mass
  1  N2  1  MOL  M1  1  0.0  72.0
  2  N3  1  MOL  M2  2  0.0  72.0
  3  C3  1  MOL  M3  3  0.0  72.0
  4  N1  1  MOL  M4  4  0.0  72.0
  5  N1  1  MOL  M5  5  0.0  72.0
  6  SC2  1  MOL  M6  6  0.0  54.0

[ bonds ]
; i  j  funct  r0[nm]  k[kJ/mol/nm2]
  1  2  1  0.3663  2351.2
  2  3  1  0.3844  4072.3
  3  4  1  0.3928  3133.1
  4  5  1  0.4301  5247.5
  5  6  1  0.3528  4597.5

[ angles ]
; i  j  k  funct  theta0[deg]  k[kJ/mol/rad2]
  1  2  3  2  130.1  98.9
  2  3  4  2  146.0  17.1
  3  4  5  2  99.2  108.0
  4  5  6  2  117.5  74.3

