; Synthetic MARTINI 3 molecule: POL026
; Generated by make_sample_data.py for pipeline testing

[ moleculetype ]
; name  nrexcl
POL026  1

[ atoms ]
; nr  type  resnr residue atom cgnr charge mass
  1  C4  1  MOL  M1  1  0.0  72.0
  2  C1  1  MOL  M2  2  0.0  72.0
  3  N1  1  MOL  M3  3  0.0  72.0
  4  N4  1  MOL  M4  4  0.0  72.0
  5  N4  1  MOL  M5  5  0.0  72.0
  6  SC3  1  MOL  M6  6  0.0  54.0
  7  C3  1  MOL  M7  7  0.0  72.0
  8  TC1  1  MOL  M8  8  0.0  36.0
  9  C4  1  MOL  M9  9  0.0  72.0

[ bonds ]
; i  j  funct  r0[nm]  k[kJ/mol/nm2]
  1  2  1  0.4714  4186.8
  2  3  1  0.3964  3563.6
  3  4  1  0.4689  3987.1
  4  5  1  0.5476  2545.8
  5  6  1  0.4890  3617.3
  6  7  1  0.4356  4870.4
  7  8  1  0.4885  5965.0
  8  9  1  0.3757  2416.4

[ angles ]
; i  j  k  funct  theta0[deg]  k[kJ/mol/rad2]
  1  2  3  2  133.5  75.7
  2  3  4  2  106.4  23.3
  3  4  5  2  95.1  108.9
  4  5  6  2  101.5  49.0
  5  6  7  2  103.6  52.3
  6  7  8  2  94.2  69.5
  7  8  9  2  94.1  99.0

