; Synthetic MARTINI 3 molecule: POL028
; Generated by make_sample_data.py for pipeline testing

[ moleculetype ]
; name  nrexcl
POL028  1

[ atoms ]
; nr  type  resnr residue atom cgnr charge mass
  1  SN2  1  MOL  M1  1  0.0  54.0
  2  N4  1  MOL  M2  2  0.0  72.0
  3  N2  1  MOL  M3  3  0.0  72.0
  4  C1  1  MOL  M4  4  0.0  72.0
  5  TN1  1  MOL  M5  5  0.0  36.0
  6  N2  1  MOL  M6  6  0.0  72.0
  7  SC2  1  MOL  M7  7  0.0  54.0
  8  TN1  1  MOL  M8  8  0.0  36.0

[ bonds ]
; i  j  funct  r0[nm]  k[kJ/mol/nm2]
  1  2  1  0.3616  4780.1
  2  3  1  0.5467  2956.7
  3  4  1  0.3784  2485.5
  4  5  1  0.4107  2404.2
  5  6  1  0.4884  2249.2
  6  7  1  0.4519  5986.8
  7  8  1  0.5128  4460.9

[ angles ]
; i  j  k  funct  theta0[deg]  k[kJ/mol/rad2]
  1  2  3  2  108.4  80.5
  2  3  4  2  121.6  59.7
  3  4  5  2  97.8  108.1
  4  5  6  2  117.0  35.4
  5  6  7  2  112.1  58.5
  6  7  8  2  139.7  92.0

