; Synthetic MARTINI 3 molecule: POL024
; Generated by make_sample_data.py for pipeline testing

[ moleculetype ]
; name  nrexcl
POL024  1

[ atoms ]
; nr  type  resnr residue atom cgnr charge mass
  1  SC2  1  MOL  M1  1  0.0  54.0
  2  SN2  1  MOL  M2  2  0.0  54.0
  3  SC1  1  MOL  M3  3  0.0  54.0
  4  C1  1  MOL  M4  4  0.0  72.0
  5  N4  1  MOL  M5  5  0.0  72.0
  6  C1  1  MOL  M6  6  0.0  72.0
  7  C3  1  MOL  M7  7  0.0  72.0
  8  SN1  1  MOL  M8  8  0.0  54.0
  9  SC1  1  MOL  M9  9  0.0  54.0
  10  SN2  1  MOL  M10  10  0.0  54.0
  11  SC2  1  MOL  M11  11  0.0  54.0

[ bonds ]
; i  j  funct  r0[nm]  k[kJ/mol/nm2]
  1  2  1  0.4845  3775.0
  2  3  1  0.5236  2708.6
  3  4  1  0.4885  5352.5
  4  5  1  0.5389  4733.0
  5  6  1  0.4494  4471.4
  6  7  1  0.5238  4282.4
  7  8  1  0.3561  5723.8
  8  9  1  0.4879  4706.1
  9  10  1  0.3931  4635.5
  10  11  1  0.4288  4604.9

[ angles ]
; i  j  k  funct  theta0[deg]  k[kJ/mol/rad2]
  1  2  3  2  96.4  84.1
  2  3  4  2  150.0  20.1
  3  4  5  2  148.6  57.7
  4  5  6  2  142.2  97.2
  5  6  7  2  124.0  92.5
  6  7  8  2  142.7  57.4
  7  8  9  2  109.6  85.1
  8  9  10  2  138.5  95.0
  9  10  11  2  137.9  60.7

