; Synthetic MARTINI 3 molecule: POL067
; Generated by make_sample_data.py for pipeline testing

[ moleculetype ]
; name  nrexcl
POL067  1

[ atoms ]
; nr  type  resnr residue atom cgnr charge mass
  1  TC1  1  MOL  M1  1  0.0  36.0
  2  N1  1  MOL  M2  2  0.0  72.0
  3  TN1  1  MOL  M3  3  0.0  36.0
  4  SC3  1  MOL  M4  4  0.0  54.0
  5  N3  1  MOL  M5  5  0.0  72.0
  6  SN2  1  MOL  M6  6  0.0  54.0
  7  SN2  1  MOL  M7  7  0.0  54.0
  8  N1  1  MOL  M8  8  0.0  72.0

[ bonds ]
; i  j  funct  r0[nm]  k[kJ/mol/nm2]
  1  2  1  0.4334  2640.9
  2  3  1  0.3842  3672.6
  3  4  1  0.5015  5591.9
  4  5  1  0.3668  3572.4
  5  6  1  0.3700  2066.4
  6  7  1  0.4823  4409.8
  7  8  1  0.3826  2935.3

[ angles ]
; i  j  k  funct  theta0[deg]  k[kJ/mol/rad2]
  1  2  3  2  91.4  102.7
  2  3  4  2  148.5  29.2
  3  4  5  2  103.9  106.2
  4  5  6  2  145.6  59.1
  5  6  7  2  93.0  19.1
  6  7  8  2  124.4  56.3

