; Synthetic MARTINI 3 molecule: POL005
; Generated by make_sample_data.py for pipeline testing

[ moleculetype ]
; name  nrexcl
POL005  1

[ atoms ]
; nr  type  resnr residue atom cgnr charge mass
  1  C4  1  MOL  M1  1  0.0  72.0
  2  TC2  1  MOL  M2  2  0.0  36.0
  3  N2  1  MOL  M3  3  0.0  72.0
  4  C4  1  MOL  M4  4  0.0  72.0
  5  N1  1  MOL  M5  5  0.0  72.0

[ bonds ]
; i  j  funct  r0[nm]  k[kJ/mol/nm2]
  1  2  1  0.5040  2863.3
  2  3  1  0.4746  2341.4
  3  4  1  0.3603  4125.4
  4  5  1  0.4581  4549.7

[ angles ]
; i  j  k  funct  theta0[deg]  k[kJ/mol/rad2]
  1  2  3  2  133.6  117.5
  2  3  4  2  121.0  48.9
  3  4  5  2  137.7  43.4

