; Synthetic MARTINI 3 molecule: POL011
; Generated by make_sample_data.py for pipeline testing

[ moleculetype ]
; name  nrexcl
POL011  1

[ atoms ]
; nr  type  resnr residue atom cgnr charge mass
  1  C2  1  MOL  M1  1  0.0  72.0
  2  N2  1  MOL  M2  2  0.0  72.0
  3  C2  1  MOL  M3  3  0.0  72.0
  4  C2  1  MOL  M4  4  0.0  72.0
  5  TN1  1  MOL  M5  5  0.0  36.0

[ bonds ]
; i  j  funct  r0[nm]  k[kJ/mol/nm2]
  1  2  1  0.4712  2948.9
  2  3  1  0.3704  2611.4
  3  4  1  0.3992  2642.7
  4  5  1  0.3873  3140.4

[ angles ]
; i  j  k  funct  theta0[deg]  k[kJ/mol/rad2]
  1  2  3  2  100.4  109.2
  2  3  4  2  94.8  70.1
  3  4  5  2  114.6  118.1

