; Synthetic MARTINI 3 molecule: POL054
; Generated by make_sample_data.py for pipeline testing

[ moleculetype ]
; name  nrexcl
POL054  1

[ atoms ]
; nr  type  resnr residue atom cgnr charge mass
  1  C3  1  MOL  M1  1  0.0  72.0
  2  SN1  1  MOL  M2  2  0.0  54.0
  3  C4  1  MOL  M3  3  0.0  72.0
  4  N3  1  MOL  M4  4  0.0  72.0
  5  SC1  1  MOL  M5  5  0.0  54.0
  6  C2  1  MOL  M6  6  0.0  72.0

[ bonds ]
; i  j  funct  r0[nm]  k[kJ/mol/nm2]
  1  2  1  0.4937  4929.6
  2  3  1  0.4530  2645.5
  3  4  1  0.3667  2076.5
  4  5  1  0.3831  5563.4
  5  6  1  0.3983  3417.1

[ angles ]
; i  j  k  funct  theta0[deg]  k[kJ/mol/rad2]
  1  2  3  2  96.3  38.3
  2  3  4  2  121.2  78.8
  3  4  5  2  104.7  21.1
  4  5  6  2  113.5  39.6

