; Synthetic MARTINI 3 molecule: POL098
; Generated by make_sample_data.py for pipeline testing

[ moleculetype ]
; name  nrexcl
POL098  1

[ atoms ]
; nr  type  resnr residue atom cgnr charge mass
  1  SN1  1  MOL  M1  1  0.0  54.0
  2  N3  1  MOL  M2  2  0.0  72.0
  3  C3  1  MOL  M3  3  0.0  72.0
  4  C2  1  MOL  M4  4  0.0  72.0
  5  C3  1  MOL  M5  5  0.0  72.0

[ bonds ]
; i  j  funct  r0[nm]  k[kJ/mol/nm2]
  1  2  1  0.5091  2565.5
  2  3  1  0.3761  4573.7
  3  4  1  0.3894  2390.4
  4  5  1  0.3834  5694.9

[ angles ]
; i  j  k  funct  theta0[deg]  k[kJ/mol/rad2]
  1  2  3  2  139.3  52.2
  2  3  4  2  129.3  71.4
  3  4  5  2  130.6  86.7

