; Synthetic MARTINI 3 molecule: POL050
; Generated by make_sample_data.py for pipeline testing

[ moleculetype ]
; name  nrexcl
POL050  1

[ atoms ]
; nr  type  resnr residue atom cgnr charge mass
  1  TC2  1  MOL  M1  1  0.0  36.0
  2  SC3  1  MOL  M2  2  0.0  54.0
  3  C4  1  MOL  M3  3  0.0  72.0
  4  SN2  1  MOL  M4  4  0.0  54.0
  5  C3  1  MOL  M5  5  0.0  72.0
  6  SC3  1  MOL  M6  6  0.0  54.0
  7  C1  1  MOL  M7  7  0.0  72.0
  8  C2  1  MOL  M8  8  0.0  72.0
  9  N2  1  MOL  M9  9  0.0  72.0
  10  TC1  1  MOL  M10  10  0.0  36.0
  11  SC1  1  MOL  M11  11  0.0  54.0

[ bonds ]
; i  j  funct  r0[nm]  k[kJ/mol/nm2]
  1  2  1  0.4093  4857.7
  2  3  1  0.5018  2410.1
  3  4  1  0.4528  4035.6
  4  5  1  0.4239  5731.7
  5  6  1  0.5155  4788.8
  6  7  1  0.4929  3846.9
  7  8  1  0.5342  4778.4
  8  9  1  0.4958  5446.8
  9  10  1  0.4048  5228.3
  10  11  1  0.3890  3381.4

[ angles ]
; i  j  k  funct  theta0[deg]  k[kJ/mol/rad2]
  1  2  3  2  110.1  117.7
  2  3  4  2  141.4  88.6
  3  4  5  2  133.6  74.0
  4  5  6  2  146.8  67.1
  5  6  7  2  112.8  32.1
  6  7  8  2  137.2  92.1
  7  8  9  2  113.1  17.6
  8  9  10  2  140.3  16.2
  9  10  11  2  132.2  116.9

