; Synthetic MARTINI 3 molecule: POL014
; Generated by make_sample_data.py for pipeline testing

[ moleculetype ]
; name  nrexcl
POL014  1

[ atoms ]
; nr  type  resnr residue atom cgnr charge mass
  1  C4  1  MOL  M1  1  0.0  72.0
  2  C4  1  MOL  M2  2  0.0  72.0
  3  SC1  1  MOL  M3  3  0.0  54.0
  4  TC2  1  MOL  M4  4  0.0  36.0
  5  N1  1  MOL  M5  5  0.0  72.0
  6  SC3  1  MOL  M6  6  0.0  54.0
  7  N2  1  MOL  M7  7  0.0  72.0
  8  SC3  1  MOL  M8  8  0.0  54.0
  9  TC2  1  MOL  M9  9  0.0  36.0

[ bonds ]
; i  j  funct  r0[nm]  k[kJ/mol/nm2]
  1  2  1  0.5369  5702.3
  2  3  1  0.4402  2453.0
  3  4  1  0.5470  5355.6
  4  5  1  0.3749  5683.4
  5  6  1  0.5240  4075.4
  6  7  1  0.4683  3596.0
  7  8  1  0.3610  3340.8
  8  9  1  0.5106  2018.5

[ angles ]
; i  j  k  funct  theta0[deg]  k[kJ/mol/rad2]
  1  2  3  2  110.0  56.8
  2  3  4  2  122.2  111.6
  3  4  5  2  110.8  51.4
  4  5  6  2  134.3  62.5
  5  6  7  2  103.5  62.5
  6  7  8  2  98.5  33.5
  7  8  9  2  119.9  59.0

