; Synthetic MARTINI 3 molecule: POL001
; Generated by make_sample_data.py for pipeline testing

[ moleculetype ]
; name  nrexcl
POL001  1

[ atoms ]
; nr  type  resnr residue atom cgnr charge mass
  1  C1  1  MOL  M1  1  0.0  72.0
  2  SC2  1  MOL  M2  2  0.0  54.0
  3  SN1  1  MOL  M3  3  0.0  54.0
  4  N2  1  MOL  M4  4  0.0  72.0
  5  TC2  1  MOL  M5  5  0.0  36.0
  6  SC1  1  MOL  M6  6  0.0  54.0
  7  SC3  1  MOL  M7  7  0.0  54.0
  8  N2  1  MOL  M8  8  0.0  72.0
  9  C4  1  MOL  M9  9  0.0  72.0

[ bonds ]
; i  j  funct  r0[nm]  k[kJ/mol/nm2]
  1  2  1  0.4062  4170.8
  2  3  1  0.3782  5208.8
  3  4  1  0.3649  5947.5
  4  5  1  0.5044  2794.9
  5  6  1  0.3511  5261.8
  6  7  1  0.4914  4916.0
  7  8  1  0.5043  2296.2
  8  9  1  0.4217  2463.5

[ angles ]
; i  j  k  funct  theta0[deg]  k[kJ/mol/rad2]
  1  2  3  2  141.8  80.4
  2  3  4  2  109.9  21.7
  3  4  5  2  108.7  49.1
  4  5  6  2  133.8  81.9
  5  6  7  2  143.2  64.6
  6  7  8  2  97.2  89.9
  7  8  9  2  135.6  73.9

