; Synthetic MARTINI 3 molecule: POL073
; Generated by make_sample_data.py for pipeline testing

[ moleculetype ]
; name  nrexcl
POL073  1

[ atoms ]
; nr  type  resnr residue atom cgnr charge mass
  1  TN2  1  MOL  M1  1  0.0  36.0
  2  N4  1  MOL  M2  2  0.0  72.0
  3  TN1  1  MOL  M3  3  0.0  36.0
  4  TC2  1  MOL  M4  4  0.0  36.0
  5  C2  1  MOL  M5  5  0.0  72.0
  6  SC3  1  MOL  M6  6  0.0  54.0
  7  N1  1  MOL  M7  7  0.0  72.0
  8  N3  1  MOL  M8  8  0.0  72.0
  9  C2  1  MOL  M9  9  0.0  72.0

[ bonds ]
; i  j  funct  r0[nm]  k[kJ/mol/nm2]
  1  2  1  0.5244  4307.9
  2  3  1  0.4191  5212.0
  3  4  1  0.4581  2317.1
  4  5  1  0.4632  5632.1
  5  6  1  0.4293  3185.3
  6  7  1  0.3787  2605.8
  7  8  1  0.4366  4382.7
  8  9  1  0.3661  5758.3

[ angles ]
; i  j  k  funct  theta0[deg]  k[kJ/mol/rad2]
  1  2  3  2  135.3  76.6
  2  3  4  2  139.7  23.4
  3  4  5  2  118.6  81.2
  4  5  6  2  139.7  97.3
  5  6  7  2  106.6  113.8
  6  7  8  2  97.5  106.9
  7  8  9  2  148.3  33.6

