; Synthetic MARTINI 3 molecule: POL072
; Generated by make_sample_data.py for pipeline testing

[ moleculetype ]
; name  nrexcl
POL072  1

[ atoms ]
; nr  type  resnr residue atom cgnr charge mass
  1  N2  1  MOL  M1  1  0.0  72.0
  2  SC1  1  MOL  M2  2  0.0  54.0
  3  C2  1  MOL  M3  3  0.0  72.0
  4  N3  1  MOL  M4  4  0.0  72.0
  5  N2  1  MOL  M5  5  0.0  72.0
  6  SC2  1  MOL  M6  6  0.0  54.0

[ bonds ]
; i  j  funct  r0[nm]  k[kJ/mol/nm2]
  1  2  1  0.4903  4225.9
  2  3  1  0.4217  5645.4
  3  4  1  0.3542  3263.1
  4  5  1  0.3614  5066.1
  5  6  1  0.4904  3325.4

[ angles ]
; i  j  k  funct  theta0[deg]  k[kJ/mol/rad2]
  1  2  3  2  130.5  56.6
  2  3  4  2  135.4  62.7
  3  4  5  2  114.7  113.1
  4  5  6  2  105.1  27.6

