; Synthetic MARTINI 3 molecule: POL017
; Generated by make_sample_data.py for pipeline testing

[ moleculetype ]
; name  nrexcl
POL017  1

[ atoms ]
; nr  type  resnr residue atom cgnr charge mass
  1  SC3  1  MOL  M1  1  0.0  54.0
  2  N4  1  MOL  M2  2  0.0  72.0
  3  N2  1  MOL  M3  3  0.0  72.0
  4  TC2  1  MOL  M4  4  0.0  36.0
  5  C3  1  MOL  M5  5  0.0  72.0

[ bonds ]
; i  j  funct  r0[nm]  k[kJ/mol/nm2]
  1  2  1  0.5099  4778.8
  2  3  1  0.4044  4360.9
  3  4  1  0.4222  2366.3
  4  5  1  0.5335  2547.3

[ angles ]
; i  j  k  funct  theta0[deg]  k[kJ/mol/rad2]
  1  2  3  2  147.0  61.8
  2  3  4  2  101.1  71.9
  3  4  5  2  142.4  91.9

