; Synthetic MARTINI 3 molecule: POL058
; Generated by make_sample_data.py for pipeline testing

[ moleculetype ]
; name  nrexcl
POL058  1

[ atoms ]
; nr  type  resnr residue atom cgnr charge mass
  1  SC1  1  MOL  M1  1  0.0  54.0
  2  TC2  1  MOL  M2  2  0.0  36.0
  3  N1  1  MOL  M3  3  0.0  72.0
  4  N2  1  MOL  M4  4  0.0  72.0
  5  C4  1  MOL  M5  5  0.0  72.0
  6  C1  1  MOL  M6  6  0.0  72.0
  7  TN1  1  MOL  M7  7  0.0  36.0
  8  SN1  1  MOL  M8  8  0.0  54.0

[ bonds ]
; i  j  funct  r0[nm]  k[kJ/mol/nm2]
  1  2  1  0.4686  2213.4
  2  3  1  0.4410  4699.1
  3  4  1  0.4855  3492.5
  4  5  1  0.5383  2669.4
  5  6  1  0.4501  4763.5
  6  7  1  0.4894  4594.6
  7  8  1  0.4051  2624.8

[ angles ]
; i  j  k  funct  theta0[deg]  k[kJ/mol/rad2]
  1  2  3  2  128.2  77.9
  2  3  4  2  100.8  89.0
  3  4  5  2  117.3  85.1
  4  5  6  2  140.2  32.8
  5  6  7  2  91.1  96.8
  6  7  8  2  126.6  88.5

