; Synthetic MARTINI 3 molecule: POL030
; Generated by make_sample_data.py for pipeline testing

[ moleculetype ]
; name  nrexcl
POL030  1

[ atoms ]
; nr  type  resnr residue atom cgnr charge mass
  1  SN1  1  MOL  M1  1  0.0  54.0
  2  N2  1  MOL  M2  2  0.0  72.0
  3  N3  1  MOL  M3  3  0.0  72.0
  4  SN2  1  MOL  M4  4  0.0  54.0
  5  TC2  1  MOL  M5  5  0.0  36.0
  6  N1  1  MOL  M6  6  0.0  72.0
  7  TC2  1  MOL  M7  7  0.0  36.0
  8  TC1  1  MOL  M8  8  0.0  36.0
  9  C4  1  MOL  M9  9  0.0  72.0
  10  SC3  1  MOL  M10  10  0.0  54.0

[ bonds ]
; i  j  funct  r0[nm]  k[kJ/mol/nm2]
  1  2  1  0.3911  2485.5
  2  3  1  0.4730  5098.5
  3  4  1  0.4788  4121.2
  4  5  1  0.3584  5874.0
  5  6  1  0.5097  3171.3
  6  7  1  0.5460  4407.5
  7  8  1  0.4665  4992.3
  8  9  1  0.5124  4625.9
  9  10  1  0.3756  3353.1

[ angles ]
; i  j  k  funct  theta0[deg]  k[kJ/mol/rad2]
  1  2  3  2  145.7  38.6
  2  3  4  2  112.3  60.4
  3  4  5  2  116.4  79.4
  4  5  6  2  146.6  40.3
  5  6  7  2  97.3  35.7
  6  7  8  2  143.2  82.8
  7  8  9  2  107.2  100.7
  8  9  10  2  141.7  103.9

