; Synthetic MARTINI 3 molecule: POL092
; Generated by make_sample_data.py for pipeline testing

[ moleculetype ]
; name  nrexcl
POL092  1

[ atoms ]
; nr  type  resnr residue atom cgnr charge mass
  1  SC3  1  MOL  M1  1  0.0  54.0
  2  N1  1  MOL  M2  2  0.0  72.0
  3  N2  1  MOL  M3  3  0.0  72.0
  4  N1  1  MOL  M4  4  0.0  72.0
  5  C2  1  MOL  M5  5  0.0  72.0
  6  C3  1  MOL  M6  6  0.0  72.0
  7  TC1  1  MOL  M7  7  0.0  36.0
  8  C2  1  MOL  M8  8  0.0  72.0
  9  SC2  1  MOL  M9  9  0.0  54.0
  10  SN1  1  MOL  M10  10  0.0  54.0
  11  SC2  1  MOL  M11  11  0.0  54.0
  12  C2  1  MOL  M12  12  0.0  72.0

[ bonds ]
; i  j  funct  r0[nm]  k[kJ/mol/nm2]
  1  2  1  0.4364  5127.1
  2  3  1  0.4468  5176.1
  3  4  1  0.4653  3368.3
  4  5  1  0.5120  2953.2
  5  6  1  0.3949  4018.0
  6  7  1  0.4022  2036.3
  7  8  1  0.4797  4044.4
  8  9  1  0.4391  5867.9
  9  10  1  0.4642  5453.7
  10  11  1  0.3779  4276.8
  11  12  1  0.5236  4332.4

[ angles ]
; i  j  k  funct  theta0[deg]  k[kJ/mol/rad2]
  1  2  3  2  133.1  54.1
  2  3  4  2  95.5  63.1
  3  4  5  2  113.7  106.0
  4  5  6  2  104.6  116.5
  5  6  7  2  147.5  41.0
  6  7  8  2  110.9  109.0
  7  8  9  2  148.0  61.6
  8  9  10  2  109.3  70.2
  9  10  11  2  131.3  43.7
  10  11  12  2  134.2  20.4

