; Synthetic MARTINI 3 molecule: POL044
; Generated by make_sample_data.py for pipeline testing

[ moleculetype ]
; name  nrexcl
POL044  1

[ atoms ]
; nr  type  resnr residue atom cgnr charge mass
  1  SN2  1  MOL  M1  1  0.0  54.0
  2  TC2  1  MOL  M2  2  0.0  36.0
  3  SN2  1  MOL  M3  3  0.0  54.0
  4  TC2  1  MOL  M4  4  0.0  36.0
  5  C1  1  MOL  M5  5  0.0  72.0
  6  SN2  1  MOL  M6  6  0.0  54.0
  7  N1  1  MOL  M7  7  0.0  72.0
  8  SC2  1  MOL  M8  8  0.0  54.0

[ bonds ]
; i  j  funct  r0[nm]  k[kJ/mol/nm2]
  1  2  1  0.3984  4855.8
  2  3  1  0.5145  5215.8
  3  4  1  0.4605  4080.7
  4  5  1  0.3786  5101.4
  5  6  1  0.4043  3986.8
  6  7  1  0.4069  2535.3
  7  8  1  0.4759  2217.3

[ angles ]
; i  j  k  funct  theta0[deg]  k[kJ/mol/rad2]
  1  2  3  2  134.9  48.3
  2  3  4  2  90.0  68.7
  3  4  5  2  92.8  44.0
  4  5  6  2  132.4  21.6
  5  6  7  2  140.4  15.4
  6  7  8  2  104.8  92.8

