; Synthetic MARTINI 3 molecule: POL047
; Generated by make_sample_data.py for pipeline testing

[ moleculetype ]
; name  nrexcl
POL047  1

[ atoms ]
; nr  type  resnr residue atom cgnr charge mass
  1  SC2  1  MOL  M1  1  0.0  54.0
  2  TC2  1  MOL  M2  2  0.0  36.0
  3  TN1  1  MOL  M3  3  0.0  36.0
  4  N1  1  MOL  M4  4  0.0  72.0
  5  N2  1  MOL  M5  5  0.0  72.0
  6  C4  1  MOL  M6  6  0.0  72.0
  7  SN2  1  MOL  M7  7  0.0  54.0
  8  C3  1  MOL  M8  8  0.0  72.0
  9  SC1  1  MOL  M9  9  0.0  54.0

[ bonds ]
; i  j  funct  r0[nm]  k[kJ/mol/nm2]
  1  2  1  0.4020  3380.8
  2  3  1  0.5335  3162.0
  3  4  1  0.4440  5560.6
  4  5  1  0.4915  2248.8
  5  6  1  0.3795  2031.4
  6  7  1  0.4762  3790.7
  7  8  1  0.3769  5831.7
  8  9  1  0.4559  2967.6

[ angles ]
; i  j  k  funct  theta0[deg]  k[kJ/mol/rad2]
  1  2  3  2  120.0  86.4
  2  3  4  2  94.6  43.8
  3  4  5  2  138.4  63.3
  4  5  6  2  122.8  60.4
  5  6  7  2  92.6  32.4
  6  7  8  2  116.7  37.0
  7  8  9  2  93.0  103.6

