; Synthetic MARTINI 3 molecule: POL094
; Generated by make_sample_data.py for pipeline testing

[ moleculetype ]
; name  nrexcl
POL094  1

[ atoms ]
; nr  type  resnr residue atom cgnr charge mass
  1  N4  1  MOL  M1  1  0.0  72.0
  2  C4  1  MOL  M2  2  0.0  72.0
  3  SC2  1  MOL  M3  3  0.0  54.0
  4  SC1  1  MOL  M4  4  0.0  54.0
  5  TN1  1  MOL  M5  5  0.0  36.0
  6  N2  1  MOL  M6  6  0.0  72.0

[ bonds ]
; i  j  funct  r0[nm]  k[kJ/mol/nm2]
  1  2  1  0.3728  4575.6
  2  3  1  0.5169  4309.4
  3  4  1  0.4793  3833.5
  4  5  1  0.4557  2137.5
  5  6  1  0.4778  2325.8

[ angles ]
; i  j  k  funct  theta0[deg]  k[kJ/mol/rad2]
  1  2  3  2  116.1  45.7
  2  3  4  2  122.7  29.0
  3  4  5  2  131.5  98.5
  4  5  6  2  99.8  26.0

