; Synthetic MARTINI 3 molecule: POL046
; Generated by make_sample_data.py for pipeline testing

[ moleculetype ]
; name  nrexcl
POL046  1

[ atoms ]
; nr  type  resnr residue atom cgnr charge mass
  1  C4  1  MOL  M1  1  0.0  72.0
  2  C2  1  MOL  M2  2  0.0  72.0
  3  N1  1  MOL  M3  3  0.0  72.0
  4  SN2  1  MOL  M4  4  0.0  54.0
  5  C2  1  MOL  M5  5  0.0  72.0
  6  N3  1  MOL  M6  6  0.0  72.0
  7  SC1  1  MOL  M7  7  0.0  54.0

[ bonds ]
; i  j  funct  r0[nm]  k[kJ/mol/nm2]
  1  2  1  0.3740  3062.3
  2  3  1  0.3535  3173.2
  3  4  1  0.5046  4071.8
  4  5  1  0.4196  3487.0
  5  6  1  0.3503  3199.2
  6  7  1  0.4793  5896.8

[ angles ]
; i  j  k  funct  theta0[deg]  k[kJ/mol/rad2]
  1  2  3  2  140.8  17.5
  2  3  4  2  143.9  97.2
  3  4  5  2  136.8  63.1
  4  5  6  2  113.9  46.8
  5  6  7  2  93.9  39.0

