; Synthetic MARTINI 3 molecule: POL077
; Generated by make_sample_data.py for pipeline testing

[ moleculetype ]
; name  nrexcl
POL077  1

[ atoms ]
; nr  type  resnr residue atom cgnr charge mass
  1  TN1  1  MOL  M1  1  0.0  36.0
  2  TN2  1  MOL  M2  2  0.0  36.0
  3  N4  1  MOL  M3  3  0.0  72.0
  4  C4  1  MOL  M4  4  0.0  72.0
  5  TC2  1  MOL  M5  5  0.0  36.0
  6  TC2  1  MOL  M6  6  0.0  36.0
  7  SN2  1  MOL  M7  7  0.0  54.0

[ bonds ]
; i  j  funct  r0[nm]  k[kJ/mol/nm2]
  1  2  1  0.4635  5185.0
  2  3  1  0.4970  4440.4
  3  4  1  0.4476  2532.7
  4  5  1  0.4023  3676.4
  5  6  1  0.4699  4054.8
  6  7  1  0.4076  2025.9

[ angles ]
; i  j  k  funct  theta0[deg]  k[kJ/mol/rad2]
  1  2  3  2  119.8  45.0
  2  3  4  2  134.1  17.5
  3  4  5  2  125.1  113.9
  4  5  6  2  100.5  64.5
  5  6  7  2  95.5  80.7

