; Synthetic MARTINI 3 molecule: POL000
; Generated by make_sample_data.py for pipeline testing

[ moleculetype ]
; name  nrexcl
POL000  1

[ atoms ]
; nr  type  resnr residue atom cgnr charge mass
  1  C3  1  MOL  M1  1  0.0  72.0
  2  SN1  1  MOL  M2  2  0.0  54.0
  3  C2  1  MOL  M3  3  0.0  72.0
  4  C1  1  MOL  M4  4  0.0  72.0
  5  C3  1  MOL  M5  5  0.0  72.0
  6  SC3  1  MOL  M6  6  0.0  54.0

[ bonds ]
; i  j  funct  r0[nm]  k[kJ/mol/nm2]
  1  2  1  0.4364  3164.9
  2  3  1  0.4724  2558.0
  3  4  1  0.4084  3465.4
  4  5  1  0.4412  5140.7
  5  6  1  0.3899  4056.9

[ angles ]
; i  j  k  funct  theta0[deg]  k[kJ/mol/rad2]
  1  2  3  2  125.5  19.9
  2  3  4  2  126.5  32.9
  3  4  5  2  93.9  114.6
  4  5  6  2  147.9  99.9

