; Synthetic MARTINI 3 molecule: POL051
; Generated by make_sample_data.py for pipeline testing

[ moleculetype ]
; name  nrexcl
POL051  1

[ atoms ]
; nr  type  resnr residue atom cgnr charge mass
  1  SC2  1  MOL  M1  1  0.0  54.0
  2  C4  1  MOL  M2  2  0.0  72.0
  3  C1  1  MOL  M3  3  0.0  72.0
  4  SC1  1  MOL  M4  4  0.0  54.0
  5  C1  1  MOL  M5  5  0.0  72.0
  6  N3  1  MOL  M6  6  0.0  72.0
  7  TC1  1  MOL  M7  7  0.0  36.0
  8  N2  1  MOL  M8  8  0.0  72.0
  9  C1  1  MOL  M9  9  0.0  72.0

[ bonds ]
; i  j  funct  r0[nm]  k[kJ/mol/nm2]
  1  2  1  0.4743  3336.2
  2  3  1  0.4965  3618.1
  3  4  1  0.3637  5135.0
  4  5  1  0.4072  3731.1
  5  6  1  0.4871  3329.8
  6  7  1  0.3613  3495.7
  7  8  1  0.5389  4566.9
  8  9  1  0.4843  4529.1

[ angles ]
; i  j  k  funct  theta0[deg]  k[kJ/mol/rad2]
  1  2  3  2  101.9  58.9
  2  3  4  2  135.1  25.6
  3  4  5  2  106.7  44.0
  4  5  6  2  115.9  117.9
  5  6  7  2  94.1  69.5
  6  7  8  2  100.8  116.9
  7  8  9  2  96.8  57.4

