; Synthetic MARTINI 3 molecule: POL041
; Generated by make_sample_data.py for pipeline testing

[ moleculetype ]
; name  nrexcl
POL041  1

[ atoms ]
; nr  type  resnr residue atom cgnr charge mass
  1  SN2  1  MOL  M1  1  0.0  54.0
  2  N2  1  MOL  M2  2  0.0  72.0
  3  SC3  1  MOL  M3  3  0.0  54.0
  4  TC1  1  MOL  M4  4  0.0  36.0
  5  N4  1  MOL  M5  5  0.0  72.0
  6  TC1  1  MOL  M6  6  0.0  36.0
  7  SN1  1  MOL  M7  7  0.0  54.0
  8  C2  1  MOL  M8  8  0.0  72.0
  9  N2  1  MOL  M9  9  0.0  72.0
  10  TN1  1  MOL  M10  10  0.0  36.0
  11  N4  1  MOL  M11  11  0.0  72.0

[ bonds ]
; i  j  funct  r0[nm]  k[kJ/mol/nm2]
  1  2  1  0.4361  2570.4
  2  3  1  0.5280  3383.5
  3  4  1  0.3809  2101.8
  4  5  1  0.4792  4547.6
  5  6  1  0.4181  2286.8
  6  7  1  0.4319  3244.9
  7  8  1  0.4854  4423.1
  8  9  1  0.4229  2871.6
  9  10  1  0.5476  3816.0
  10  11  1  0.4877  2562.2

[ angles ]
; i  j  k  funct  theta0[deg]  k[kJ/mol/rad2]
  1  2  3  2  119.1  17.9
  2  3  4  2  120.3  116.2
  3  4  5  2  113.1  19.1
  4  5  6  2  91.9  55.7
  5  6  7  2  99.6  17.5
  6  7  8  2  135.4  63.1
  7  8  9  2  107.4  109.5
  8  9  10  2  97.0  115.4
  9  10  11  2  108.8  108.3

