; Synthetic MARTINI 3 molecule: POL039
; Generated by make_sample_data.py for pipeline testing

[ moleculetype ]
; name  nrexcl
POL039  1

[ atoms ]
; nr  type  resnr residue atom cgnr charge mass
  1  TC1  1  MOL  M1  1  0.0  36.0
  2  C4  1  MOL  M2  2  0.0  72.0
  3  SN2  1  MOL  M3  3  0.0  54.0
  4  C4  1  MOL  M4  4  0.0  72.0
  5  SC1  1  MOL  M5  5  0.0  54.0
  6  TN1  1  MOL  M6  6  0.0  36.0

[ bonds ]
; i  j  funct  r0[nm]  k[kJ/mol/nm2]
  1  2  1  0.4464  2784.4
  2  3  1  0.4722  3122.7
  3  4  1  0.3914  4066.3
  4  5  1  0.3511  2030.7
  5  6  1  0.3938  2146.9

[ angles ]
; i  j  k  funct  theta0[deg]  k[kJ/mol/rad2]
  1  2  3  2  96.5  50.6
  2  3  4  2  138.2  75.1
  3  4  5  2  120.8  45.8
  4  5  6  2  145.9  56.7

