; Synthetic MARTINI 3 molecule: POL016
; Generated by make_sample_data.py for pipeline testing

[ moleculetype ]
; name  nrexcl
POL016  1

[ atoms ]
; nr  type  resnr residue atom cgnr charge mass
  1  SC2  1  MOL  M1  1  0.0  54.0
  2  SN1  1  MOL  M2  2  0.0  54.0
  3  C1  1  MOL  M3  3  0.0  72.0
  4  SC2  1  MOL  M4  4  0.0  54.0
  5  N2  1  MOL  M5  5  0.0  72.0
  6  SN1  1  MOL  M6  6  0.0  54.0
  7  TC1  1  MOL  M7  7  0.0  36.0

[ bonds ]
; i  j  funct  r0[nm]  k[kJ/mol/nm2]
  1  2  1  0.3537  5657.2
  2  3  1  0.3736  4306.1
  3  4  1  0.4048  4216.7
  4  5  1  0.4803  5319.0
  5  6  1  0.3913  2044.0
  6  7  1  0.3774  5600.1

[ angles ]
; i  j  k  funct  theta0[deg]  k[kJ/mol/rad2]
  1  2  3  2  142.4  77.7
  2  3  4  2  126.0  84.8
  3  4  5  2  100.5  111.0
  4  5  6  2  115.1  55.2
  5  6  7  2  121.1  19.9

