; Synthetic MARTINI 3 molecule: POL055
; Generated by make_sample_data.py for pipeline testing

[ moleculetype ]
; name  nrexcl
POL055  1

[ atoms ]
; nr  type  resnr residue atom cgnr charge mass
  1  TC1  1  MOL  M1  1  0.0  36.0
  2  C4  1  MOL  M2  2  0.0  72.0
  3  N3  1  MOL  M3  3  0.0  72.0
  4  N3  1  MOL  M4  4  0.0  72.0
  5  C4  1  MOL  M5  5  0.0  72.0
  6  TC2  1  MOL  M6  6  0.0  36.0
  7  TC1  1  MOL  M7  7  0.0  36.0
  8  SN1  1  MOL  M8  8  0.0  54.0
  9  C1  1  MOL  M9  9  0.0  72.0
  10  TC2  1  MOL  M10  10  0.0  36.0
  11  C1  1  MOL  M11  11  0.0  72.0
  12  SC2  1  MOL  M12  12  0.0  54.0

[ bonds ]
; i  j  funct  r0[nm]  k[kJ/mol/nm2]
  1  2  1  0.4403  2733.8
  2  3  1  0.5210  5530.2
  3  4  1  0.4433  2302.8
  4  5  1  0.4276  5214.2
  5  6  1  0.5304  2813.9
  6  7  1  0.3634  5509.4
  7  8  1  0.4279  4167.0
  8  9  1  0.5436  2266.3
  9  10  1  0.4797  2296.4
  10  11  1  0.4251  5215.3
  11  12  1  0.4367  5988.7

[ angles ]
; i  j  k  funct  theta0[deg]  k[kJ/mol/rad2]
  1  2  3  2  123.5  48.7
  2  3  4  2  103.2  51.8
  3  4  5  2  112.4  22.2
  4  5  6  2  112.2  63.7
  5  6  7  2  133.4  84.0
  6  7  8  2  132.5  15.9
  7  8  9  2  103.1  84.5
  8  9  10  2  119.0  15.6
  9  10  11  2  138.3  96.1
  10  11  12  2  122.9  22.0

