; Synthetic MARTINI 3 molecule: POL071
; Generated by make_sample_data.py for pipeline testing

[ moleculetype ]
; name  nrexcl
POL071  1

[ atoms ]
; nr  type  resnr residue atom cgnr charge mass
  1  SC2  1  MOL  M1  1  0.0  54.0
  2  C3  1  MOL  M2  2  0.0  72.0
  3  TN2  1  MOL  M3  3  0.0  36.0
  4  N3  1  MOL  M4  4  0.0  72.0
  5  C3  1  MOL  M5  5  0.0  72.0
  6  TN2  1  MOL  M6  6  0.0  36.0
  7  TN2  1  MOL  M7  7  0.0  36.0
  8  TN2  1  MOL  M8  8  0.0  36.0
  9  C1  1  MOL  M9  9  0.0  72.0
  10  N4  1  MOL  M10  10  0.0  72.0
  11  TN1  1  MOL  M11  11  0.0  36.0

[ bonds ]
; i  j  funct  r0[nm]  k[kJ/mol/nm2]
  1  2  1  0.4388  4127.5
  2  3  1  0.5247  5982.3
  3  4  1  0.4665  5249.9
  4  5  1  0.4154  3223.0
  5  6  1  0.4305  4690.0
  6  7  1  0.4864  3261.0
  7  8  1  0.3766  4529.6
  8  9  1  0.3757  4314.0
  9  10  1  0.4887  4802.4
  10  11  1  0.5007  5491.4

[ angles ]
; i  j  k  funct  theta0[deg]  k[kJ/mol/rad2]
  1  2  3  2  120.0  91.7
  2  3  4  2  127.2  34.6
  3  4  5  2  91.5  44.9
  4  5  6  2  116.6  79.8
  5  6  7  2  141.0  35.6
  6  7  8  2  97.5  116.2
  7  8  9  2  96.5  65.2
  8  9  10  2  125.1  71.8
  9  10  11  2  95.2  21.0

