; Synthetic MARTINI 3 molecule: POL070
; Generated by make_sample_data.py for pipeline testing

[ moleculetype ]
; name  nrexcl
POL070  1

[ atoms ]
; nr  type  resnr residue atom cgnr charge mass
  1  C4  1  MOL  M1  1  0.0  72.0
  2  N1  1  MOL  M2  2  0.0  72.0
  3  TC1  1  MOL  M3  3  0.0  36.0
  4  N1  1  MOL  M4  4  0.0  72.0
  5  C4  1  MOL  M5  5  0.0  72.0
  6  C2  1  MOL  M6  6  0.0  72.0
  7  TC1  1  MOL  M7  7  0.0  36.0
  8  SN1  1  MOL  M8  8  0.0  54.0
  9  SN2  1  MOL  M9  9  0.0  54.0
  10  C3  1  MOL  M10  10  0.0  72.0
  11  C4  1  MOL  M11  11  0.0  72.0

[ bonds ]
; i  j  funct  r0[nm]  k[kJ/mol/nm2]
  1  2  1  0.5281  4307.5
  2  3  1  0.4628  4001.1
  3  4  1  0.3639  2359.5
  4  5  1  0.4702  3363.8
  5  6  1  0.5335  3626.4
  6  7  1  0.3787  4858.9
  7  8  1  0.4087  4101.9
  8  9  1  0.4896  5601.1
  9  10  1  0.5084  4705.4
  10  11  1  0.4859  5783.7

[ angles ]
; i  j  k  funct  theta0[deg]  k[kJ/mol/rad2]
  1  2  3  2  107.7  15.1
  2  3  4  2  106.3  37.9
  3  4  5  2  129.7  81.5
  4  5  6  2  125.6  16.7
  5  6  7  2  133.7  49.0
  6  7  8  2  129.9  73.4
  7  8  9  2  110.6  29.1
  8  9  10  2  95.7  102.3
  9  10  11  2  145.1  83.2

