; Synthetic MARTINI 3 molecule: POL045
; Generated by make_sample_data.py for pipeline testing

[ moleculetype ]
; name  nrexcl
POL045  1

[ atoms ]
; nr  type  resnr residue atom cgnr charge mass
  1  N4  1  MOL  M1  1  0.0  72.0
  2  N3  1  MOL  M2  2  0.0  72.0
  3  N1  1  MOL  M3  3  0.0  72.0
  4  N1  1  MOL  M4  4  0.0  72.0
  5  C1  1  MOL  M5  5  0.0  72.0
  6  N4  1  MOL  M6  6  0.0  72.0
  7  TC2  1  MOL  M7  7  0.0  36.0
  8  C1  1  MOL  M8  8  0.0  72.0

[ bonds ]
; i  j  funct  r0[nm]  k[kJ/mol/nm2]
  1  2  1  0.5414  4001.6
  2  3  1  0.4365  3830.8
  3  4  1  0.3918  3474.8
  4  5  1  0.4240  2209.4
  5  6  1  0.5035  3666.0
  6  7  1  0.5144  5401.4
  7  8  1  0.3924  4629.4

[ angles ]
; i  j  k  funct  theta0[deg]  k[kJ/mol/rad2]
  1  2  3  2  118.3  107.4
  2  3  4  2  102.9  86.2
  3  4  5  2  126.5  46.0
  4  5  6  2  98.2  83.4
  5  6  7  2  134.3  48.1
  6  7  8  2  128.7  56.5

