; Synthetic MARTINI 3 molecule: POL037
; Generated by make_sample_data.py for pipeline testing

[ moleculetype ]
; name  nrexcl
POL037  1

[ atoms ]
; nr  type  resnr residue atom cgnr charge mass
  1  SC2  1  MOL  M1  1  0.0  54.0
  2  N2  1  MOL  M2  2  0.0  72.0
  3  SN1  1  MOL  M3  3  0.0  54.0
  4  TN1  1  MOL  M4  4  0.0  36.0
  5  N1  1  MOL  M5  5  0.0  72.0
  6  N4  1  MOL  M6  6  0.0  72.0

[ bonds ]
; i  j  funct  r0[nm]  k[kJ/mol/nm2]
  1  2  1  0.4806  5753.2
  2  3  1  0.5242  5064.3
  3  4  1  0.5077  4659.9
  4  5  1  0.4021  5628.8
  5  6  1  0.4841  4241.8

[ angles ]
; i  j  k  funct  theta0[deg]  k[kJ/mol/rad2]
  1  2  3  2  96.7  61.9
  2  3  4  2  117.6  105.8
  3  4  5  2  122.8  54.9
  4  5  6  2  148.6  26.6

