; Synthetic MARTINI 3 molecule: POL048
; Generated by make_sample_data.py for pipeline testing

[ moleculetype ]
; name  nrexcl
POL048  1

[ atoms ]
; nr  type  resnr residue atom cgnr charge mass
  1  N3  1  MOL  M1  1  0.0  72.0
  2  TC2  1  MOL  M2  2  0.0  36.0
  3  N4  1  MOL  M3  3  0.0  72.0
  4  N3  1  MOL  M4  4  0.0  72.0
  5  C4  1  MOL  M5  5  0.0  72.0
  6  TC1  1  MOL  M6  6  0.0  36.0
  7  TN1  1  MOL  M7  7  0.0  36.0
  8  C1  1  MOL  M8  8  0.0  72.0
  9  N2  1  MOL  M9  9  0.0  72.0
  10  TC1  1  MOL  M10  10  0.0  36.0
  11  C3  1  MOL  M11  11  0.0  72.0
  12  SN2  1  MOL  M12  12  0.0  54.0

[ bonds ]
; i  j  funct  r0[nm]  k[kJ/mol/nm2]
  1  2  1  0.3995  4562.5
  2  3  1  0.4833  2650.8
  3  4  1  0.4630  5086.5
  4  5  1  0.4498  2048.4
  5  6  1  0.3518  3428.1
  6  7  1  0.5352  2914.7
  7  8  1  0.4769  2888.3
  8  9  1  0.4143  5392.2
  9  10  1  0.4958  2381.6
  10  11  1  0.4357  2116.7
  11  12  1  0.4462  4649.7

[ angles ]
; i  j  k  funct  theta0[deg]  k[kJ/mol/rad2]
  1  2  3  2  97.1  45.3
  2  3  4  2  113.9  111.6
  3  4  5  2  149.6  19.7
  4  5  6  2  135.7  54.0
  5  6  7  2  113.5  94.2
  6  7  8  2  145.1  114.8
  7  8  9  2  124.6  52.5
  8  9  10  2  137.3  41.4
  9  10  11  2  123.8  52.7
  10  11  12  2  129.4  40.2

