; Synthetic MARTINI 3 molecule: POL031
; Generated by make_sample_data.py for pipeline testing

[ moleculetype ]
; name  nrexcl
POL031  1

[ atoms ]
; nr  type  resnr residue atom cgnr charge mass
  1  SC3  1  MOL  M1  1  0.0  54.0
  2  N1  1  MOL  M2  2  0.0  72.0
  3  TC1  1  MOL  M3  3  0.0  36.0
  4  N3  1  MOL  M4  4  0.0  72.0
  5  SC2  1  MOL  M5  5  0.0  54.0
  6  N1  1  MOL  M6  6  0.0  72.0

[ bonds ]
; i  j  funct  r0[nm]  k[kJ/mol/nm2]
  1  2  1  0.4878  5493.3
  2  3  1  0.4773  5044.5
  3  4  1  0.3820  3846.2
  4  5  1  0.3519  2986.7
  5  6  1  0.4953  5967.2

[ angles ]
; i  j  k  funct  theta0[deg]  k[kJ/mol/rad2]
  1  2  3  2  96.0  57.2
  2  3  4  2  138.0  36.4
  3  4  5  2  123.3  92.0
  4  5  6  2  127.0  34.7

