; Synthetic MARTINI 3 molecule: POL009
; Generated by make_sample_data.py for pipeline testing

[ moleculetype ]
; name  nrexcl
POL009  1

[ atoms ]
; nr  type  resnr residue atom cgnr charge mass
  1  SN1  1  MOL  M1  1  0.0  54.0
  2  SN2  1  MOL  M2  2  0.0  54.0
  3  C2  1  MOL  M3  3  0.0  72.0
  4  C4  1  MOL  M4  4  0.0  72.0
  5  C2  1  MOL  M5  5  0.0  72.0
  6  N4  1  MOL  M6  6  0.0  72.0
  7  N2  1  MOL  M7  7  0.0  72.0
  8  C4  1  MOL  M8  8  0.0  72.0
  9  TC1  1  MOL  M9  9  0.0  36.0
  10  SC3  1  MOL  M10  10  0.0  54.0
  11  SC3  1  MOL  M11  11  0.0  54.0

[ bonds ]
; i  j  funct  r0[nm]  k[kJ/mol/nm2]
  1  2  1  0.5177  3874.8
  2  3  1  0.4330  3093.6
  3  4  1  0.3613  5458.9
  4  5  1  0.5126  5998.9
  5  6  1  0.5493  4221.7
  6  7  1  0.5038  5779.1
  7  8  1  0.5199  2989.4
  8  9  1  0.4401  2516.6
  9  10  1  0.5408  4424.7
  10  11  1  0.3957  4686.8

[ angles ]
; i  j  k  funct  theta0[deg]  k[kJ/mol/rad2]
  1  2  3  2  127.1  52.6
  2  3  4  2  96.8  85.5
  3  4  5  2  121.2  96.1
  4  5  6  2  121.2  104.5
  5  6  7  2  123.1  73.9
  6  7  8  2  142.6  57.4
  7  8  9  2  98.0  18.0
  8  9  10  2  135.3  80.1
  9  10  11  2  132.2  37.4

