; Synthetic MARTINI 3 molecule: POL013
; Generated by make_sample_data.py for pipeline testing

[ moleculetype ]
; name  nrexcl
POL013  1

[ atoms ]
; nr  type  resnr residue atom cgnr charge mass
  1  TN2  1  MOL  M1  1  0.0  36.0
  2  TC2  1  MOL  M2  2  0.0  36.0
  3  SC1  1  MOL  M3  3  0.0  54.0
  4  N3  1  MOL  M4  4  0.0  72.0
  5  C3  1  MOL  M5  5  0.0  72.0
  6  TC1  1  MOL  M6  6  0.0  36.0
  7  N3  1  MOL  M7  7  0.0  72.0
  8  N1  1  MOL  M8  8  0.0  72.0

[ bonds ]
; i  j  funct  r0[nm]  k[kJ/mol/nm2]
  1  2  1  0.3803  3246.9
  2  3  1  0.3997  4975.8
  3  4  1  0.3567  4279.6
  4  5  1  0.5025  5507.1
  5  6  1  0.4184  5285.0
  6  7  1  0.3721  5385.8
  7  8  1  0.3755  3589.1

[ angles ]
; i  j  k  funct  theta0[deg]  k[kJ/mol/rad2]
  1  2  3  2  137.8  30.7
  2  3  4  2  103.8  90.8
  3  4  5  2  133.2  82.3
  4  5  6  2  131.6  72.0
  5  6  7  2  105.1  51.3
  6  7  8  2  100.9  110.4

