; Synthetic MARTINI 3 molecule: POL012
; Generated by make_sample_data.py for pipeline testing

[ moleculetype ]
; name  nrexcl
POL012  1

[ atoms ]
; nr  type  resnr residue atom cgnr charge mass
  1  C2  1  MOL  M1  1  0.0  72.0
  2  C3  1  MOL  M2  2  0.0  72.0
  3  SN1  1  MOL  M3  3  0.0  54.0
  4  TN2  1  MOL  M4  4  0.0  36.0
  5  N2  1  MOL  M5  5  0.0  72.0
  6  TC2  1  MOL  M6  6  0.0  36.0
  7  SC3  1  MOL  M7  7  0.0  54.0
  8  N2  1  MOL  M8  8  0.0  72.0

[ bonds ]
; i  j  funct  r0[nm]  k[kJ/mol/nm2]
  1  2  1  0.4173  2537.7
  2  3  1  0.3627  5959.8
  3  4  1  0.4145  5239.5
  4  5  1  0.4009  4726.0
  5  6  1  0.5020  4382.6
  6  7  1  0.4443  3647.4
  7  8  1  0.4198  5718.1

[ angles ]
; i  j  k  funct  theta0[deg]  k[kJ/mol/rad2]
  1  2  3  2  139.8  116.3
  2  3  4  2  97.5  91.7
  3  4  5  2  146.3  34.0
  4  5  6  2  94.0  92.8
  5  6  7  2  124.5  103.4
  6  7  8  2  98.4  98.5

