; Synthetic MARTINI 3 molecule: SM052
; Generated by make_sample_data.py for pipeline testing

[ moleculetype ]
; name  nrexcl
SM052  1

[ atoms ]
; nr  type  resnr residue atom cgnr charge mass
  1  SN1  1  MOL  A1  1  0.0  54.0
  2  SP1  1  MOL  A2  2  0.0  54.0
  3  C3  1  MOL  A3  3  0.0  72.0
  4  C3  1  MOL  A4  4  0.0  72.0

[ bonds ]
; i  j  funct  r0[nm]  k[kJ/mol/nm2]
  1  2  1  0.3625  3835.8
  2  3  1  0.4965  4426.9
  3  4  1  0.4846  2324.6

[ angles ]
; i  j  k  funct  theta0[deg]  k[kJ/mol/rad2]
  1  2  3  2  147.1  103.0
  2  3  4  2  138.3  101.4

