; Synthetic MARTINI 3 molecule: SM013
; Generated by make_sample_data.py for pipeline testing

[ moleculetype ]
; name  nrexcl
SM013  1

[ atoms ]
; nr  type  resnr residue atom cgnr charge mass
  1  SP1  1  MOL  A1  1  0.0  54.0
  2  TP2  1  MOL  A2  2  0.0  36.0
  3  SN1  1  MOL  A3  3  0.0  54.0

[ bonds ]
; i  j  funct  r0[nm]  k[kJ/mol/nm2]
  1  2  1  0.4667  3603.4
  2  3  1  0.4424  5789.1

[ angles ]
; i  j  k  funct  theta0[deg]  k[kJ/mol/rad2]
  1  2  3  2  99.2  76.6

