; Synthetic MARTINI 3 molecule: SM014
; Generated by make_sample_data.py for pipeline testing

[ moleculetype ]
; name  nrexcl
SM014  1

[ atoms ]
; nr  type  resnr residue atom cgnr charge mass
  1  SP2  1  MOL  A1  1  0.0  54.0
  2  TC2  1  MOL  A2  2  0.0  36.0
  3  C2  1  MOL  A3  3  0.0  72.0
  4  C3  1  MOL  A4  4  0.0  72.0
  5  N3  1  MOL  A5  5  0.0  72.0

[ bonds ]
; i  j  funct  r0[nm]  k[kJ/mol/nm2]
  1  2  1  0.5330  3449.6
  2  3  1  0.4661  4529.1
  3  4  1  0.3526  4654.1
  4  5  1  0.3856  5844.3

[ angles ]
; i  j  k  funct  theta0[deg]  k[kJ/mol/rad2]
  1  2  3  2  98.9  58.5
  2  3  4  2  95.1  119.7
  3  4  5  2  120.1  77.5

