; Synthetic MARTINI 3 molecule: SM088
; Generated by make_sample_data.py for pipeline testing

[ moleculetype ]
; name  nrexcl
SM088  1

[ atoms ]
; nr  type  resnr residue atom cgnr charge mass
  1  SN1  1  MOL  A1  1  0.0  54.0
  2  SC3  1  MOL  A2  2  0.0  54.0
  3  P5  1  MOL  A3  3  0.0  72.0
  4  TP1  1  MOL  A4  4  0.0  36.0

[ bonds ]
; i  j  funct  r0[nm]  k[kJ/mol/nm2]
  1  2  1  0.3767  5741.6
  2  3  1  0.5003  5765.3
  3  4  1  0.4853  3453.6
  1  4  1  0.5031  5717.6

[ angles ]
; i  j  k  funct  theta0[deg]  k[kJ/mol/rad2]
  1  2  3  2  146.3  43.9
  2  3  4  2  109.9  88.6

