; Synthetic MARTINI 3 molecule: SM028
; Generated by make_sample_data.py for pipeline testing

[ moleculetype ]
; name  nrexcl
SM028  1

[ atoms ]
; nr  type  resnr residue atom cgnr charge mass
  1  P3  1  MOL  A1  1  0.0  72.0
  2  TN2  1  MOL  A2  2  0.0  36.0
  3  TC2  1  MOL  A3  3  0.0  36.0

[ bonds ]
; i  j  funct  r0[nm]  k[kJ/mol/nm2]
  1  2  1  0.5039  2044.1
  2  3  1  0.4332  3925.4

[ angles ]
; i  j  k  funct  theta0[deg]  k[kJ/mol/rad2]
  1  2  3  2  91.2  42.3

