; Synthetic MARTINI 3 molecule: SM064
; Generated by make_sample_data.py for pipeline testing

[ moleculetype ]
; name  nrexcl
SM064  1

[ atoms ]
; nr  type  resnr residue atom cgnr charge mass
  1  N4  1  MOL  A1  1  0.0  72.0
  2  SC1  1  MOL  A2  2  0.0  54.0
  3  P3  1  MOL  A3  3  0.0  72.0
  4  P1  1  MOL  A4  4  0.0  72.0
  5  N3  1  MOL  A5  5  0.0  72.0

[ bonds ]
; i  j  funct  r0[nm]  k[kJ/mol/nm2]
  1  2  1  0.4362  3390.1
  2  3  1  0.3601  2211.1
  3  4  1  0.4884  3831.7
  4  5  1  0.3953  4455.9
  1  5  1  0.4202  3450.2

[ angles ]
; i  j  k  funct  theta0[deg]  k[kJ/mol/rad2]
  1  2  3  2  105.2  75.7
  2  3  4  2  111.6  101.5
  3  4  5  2  139.2  65.1

