; Synthetic MARTINI 3 molecule: SM033
; Generated by make_sample_data.py for pipeline testing

[ moleculetype ]
; name  nrexcl
SM033  1

[ atoms ]
; nr  type  resnr residue atom cgnr charge mass
  1  P4  1  MOL  A1  1  0.0  72.0
  2  SP1  1  MOL  A2  2  0.0  54.0
  3  SP1  1  MOL  A3  3  0.0  54.0
  4  P1  1  MOL  A4  4  0.0  72.0
  5  N1  1  MOL  A5  5  0.0  72.0

[ bonds ]
; i  j  funct  r0[nm]  k[kJ/mol/nm2]
  1  2  1  0.4097  5762.7
  2  3  1  0.4019  3718.6
  3  4  1  0.5245  5367.7
  4  5  1  0.3872  5210.6
  1  5  1  0.4374  4918.0

[ angles ]
; i  j  k  funct  theta0[deg]  k[kJ/mol/rad2]
  1  2  3  2  117.5  65.7
  2  3  4  2  98.0  23.5
  3  4  5  2  133.7  67.1

