; Synthetic MARTINI 3 molecule: SM073
; Generated by make_sample_data.py for pipeline testing

[ moleculetype ]
; name  nrexcl
SM073  1

[ atoms ]
; nr  type  resnr residue atom cgnr charge mass
  1  P2  1  MOL  A1  1  0.0  72.0
  2  TC2  1  MOL  A2  2  0.0  36.0
  3  C4  1  MOL  A3  3  0.0  72.0
  4  TN2  1  MOL  A4  4  0.0  36.0
  5  P3  1  MOL  A5  5  0.0  72.0

[ bonds ]
; i  j  funct  r0[nm]  k[kJ/mol/nm2]
  1  2  1  0.4944  2161.1
  2  3  1  0.4311  4065.1
  3  4  1  0.4661  5743.7
  4  5  1  0.4845  3925.1

[ angles ]
; i  j  k  funct  theta0[deg]  k[kJ/mol/rad2]
  1  2  3  2  138.6  114.8
  2  3  4  2  91.3  118.2
  3  4  5  2  95.2  100.5

