; Synthetic MARTINI 3 molecule: SM048
; Generated by make_sample_data.py for pipeline testing

[ moleculetype ]
; name  nrexcl
SM048  1

[ atoms ]
; nr  type  resnr residue atom cgnr charge mass
  1  P1  1  MOL  A1  1  0.0  72.0
  2  N3  1  MOL  A2  2  0.0  72.0
  3  P5  1  MOL  A3  3  0.0  72.0
  4  C4  1  MOL  A4  4  0.0  72.0
  5  SC1  1  MOL  A5  5  0.0  54.0

[ bonds ]
; i  j  funct  r0[nm]  k[kJ/mol/nm2]
  1  2  1  0.3883  5673.0
  2  3  1  0.3704  4023.8
  3  4  1  0.3942  2155.7
  4  5  1  0.3572  2700.9

[ angles ]
; i  j  k  funct  theta0[deg]  k[kJ/mol/rad2]
  1  2  3  2  142.0  44.7
  2  3  4  2  147.0  76.1
  3  4  5  2  116.2  75.9

