; Synthetic MARTINI 3 molecule: SM080
; Generated by make_sample_data.py for pipeline testing

[ moleculetype ]
; name  nrexcl
SM080  1

[ atoms ]
; nr  type  resnr residue atom cgnr charge mass
  1  SC2  1  MOL  A1  1  0.0  54.0
  2  P2  1  MOL  A2  2  0.0  72.0
  3  SN1  1  MOL  A3  3  0.0  54.0

[ bonds ]
; i  j  funct  r0[nm]  k[kJ/mol/nm2]
  1  2  1  0.4951  2450.4
  2  3  1  0.4316  5545.5

[ angles ]
; i  j  k  funct  theta0[deg]  k[kJ/mol/rad2]
  1  2  3  2  92.8  115.9

