; Synthetic MARTINI 3 molecule: SM091
; Generated by make_sample_data.py for pipeline testing

[ moleculetype ]
; name  nrexcl
SM091  1

[ atoms ]
; nr  type  resnr residue atom cgnr charge mass
  1  P2  1  MOL  A1  1  0.0  72.0
  2  SN1  1  MOL  A2  2  0.0  54.0
  3  SP2  1  MOL  A3  3  0.0  54.0
  4  C4  1  MOL  A4  4  0.0  72.0

[ bonds ]
; i  j  funct  r0[nm]  k[kJ/mol/nm2]
  1  2  1  0.4966  5981.7
  2  3  1  0.4075  4152.9
  3  4  1  0.4567  3622.6
  1  4  1  0.4706  2909.0

[ angles ]
; i  j  k  funct  theta0[deg]  k[kJ/mol/rad2]
  1  2  3  2  100.1  117.6
  2  3  4  2  141.2  67.3

