; Synthetic MARTINI 3 molecule: SM021
; Generated by make_sample_data.py for pipeline testing

[ moleculetype ]
; name  nrexcl
SM021  1

[ atoms ]
; nr  type  resnr residue atom cgnr charge mass
  1  C2  1  MOL  A1  1  0.0  72.0
  2  TP2  1  MOL  A2  2  0.0  36.0
  3  TC1  1  MOL  A3  3  0.0  36.0
  4  C4  1  MOL  A4  4  0.0  72.0

[ bonds ]
; i  j  funct  r0[nm]  k[kJ/mol/nm2]
  1  2  1  0.4038  5190.2
  2  3  1  0.4121  3820.9
  3  4  1  0.3523  2289.8

[ angles ]
; i  j  k  funct  theta0[deg]  k[kJ/mol/rad2]
  1  2  3  2  113.5  65.4
  2  3  4  2  126.0  45.6

