; Synthetic MARTINI 3 molecule: SM046
; Generated by make_sample_data.py for pipeline testing

[ moleculetype ]
; name  nrexcl
SM046  1

[ atoms ]
; nr  type  resnr residue atom cgnr charge mass
  1  P1  1  MOL  A1  1  0.0  72.0
  2  P2  1  MOL  A2  2  0.0  72.0
  3  SN2  1  MOL  A3  3  0.0  54.0

[ bonds ]
; i  j  funct  r0[nm]  k[kJ/mol/nm2]
  1  2  1  0.3993  3936.3
  2  3  1  0.4995  3895.2

[ angles ]
; i  j  k  funct  theta0[deg]  k[kJ/mol/rad2]
  1  2  3  2  93.5  115.6

