; Synthetic MARTINI 3 molecule: SM057
; Generated by make_sample_data.py for pipeline testing

[ moleculetype ]
; name  nrexcl
SM057  1

[ atoms ]
; nr  type  resnr residue atom cgnr charge mass
  1  P5  1  MOL  A1  1  0.0  72.0
  2  C4  1  MOL  A2  2  0.0  72.0
  3  P1  1  MOL  A3  3  0.0  72.0
  4  N4  1  MOL  A4  4  0.0  72.0

[ bonds ]
; i  j  funct  r0[nm]  k[kJ/mol/nm2]
  1  2  1  0.5067  4264.7
  2  3  1  0.4126  4617.4
  3  4  1  0.3964  2057.5
  1  4  1  0.5174  4478.1

[ angles ]
; i  j  k  funct  theta0[deg]  k[kJ/mol/rad2]
  1  2  3  2  135.9  80.5
  2  3  4  2  135.7  19.1

