; Synthetic MARTINI 3 molecule: SM093
; Generated by make_sample_data.py for pipeline testing

[ moleculetype ]
; name  nrexcl
SM093  1

[ atoms ]
; nr  type  resnr residue atom cgnr charge mass
  1  SC2  1  MOL  A1  1  0.0  54.0
  2  C1  1  MOL  A2  2  0.0  72.0
  3  SN2  1  MOL  A3  3  0.0  54.0
  4  P2  1  MOL  A4  4  0.0  72.0
  5  TN2  1  MOL  A5  5  0.0  36.0

[ bonds ]
; i  j  funct  r0[nm]  k[kJ/mol/nm2]
  1  2  1  0.4393  4908.1
  2  3  1  0.4886  5949.5
  3  4  1  0.3950  4649.3
  4  5  1  0.4719  5660.4

[ angles ]
; i  j  k  funct  theta0[deg]  k[kJ/mol/rad2]
  1  2  3  2  99.4  93.9
  2  3  4  2  124.1  43.8
  3  4  5  2  118.5  50.0

