; Synthetic MARTINI 3 molecule: SM077
; Generated by make_sample_data.py for pipeline testing

[ moleculetype ]
; name  nrexcl
SM077  1

[ atoms ]
; nr  type  resnr residue atom cgnr charge mass
  1  N2  1  MOL  A1  1  0.0  72.0
  2  P1  1  MOL  A2  2  0.0  72.0
  3  SN1  1  MOL  A3  3  0.0  54.0

[ bonds ]
; i  j  funct  r0[nm]  k[kJ/mol/nm2]
  1  2  1  0.4601  3629.5
  2  3  1  0.4543  5586.3

[ angles ]
; i  j  k  funct  theta0[deg]  k[kJ/mol/rad2]
  1  2  3  2  101.8  17.4

