; Synthetic MARTINI 3 molecule: SM097
; Generated by make_sample_data.py for pipeline testing

[ moleculetype ]
; name  nrexcl
SM097  1

[ atoms ]
; nr  type  resnr residue atom cgnr charge mass
  1  SP1  1  MOL  A1  1  0.0  54.0
  2  N1  1  MOL  A2  2  0.0  72.0
  3  C2  1  MOL  A3  3  0.0  72.0
  4  TP2  1  MOL  A4  4  0.0  36.0

[ bonds ]
; i  j  funct  r0[nm]  k[kJ/mol/nm2]
  1  2  1  0.5468  3169.0
  2  3  1  0.4090  3418.2
  3  4  1  0.4629  3009.3

[ angles ]
; i  j  k  funct  theta0[deg]  k[kJ/mol/rad2]
  1  2  3  2  144.9  42.9
  2  3  4  2  143.7  25.9

