; Synthetic MARTINI 3 molecule: SM063
; Generated by make_sample_data.py for pipeline testing

[ moleculetype ]
; name  nrexcl
SM063  1

[ atoms ]
; nr  type  resnr residue atom cgnr charge mass
  1  SC2  1  MOL  A1  1  0.0  54.0
  2  P3  1  MOL  A2  2  0.0  72.0
  3  P3  1  MOL  A3  3  0.0  72.0
  4  P1  1  MOL  A4  4  0.0  72.0
  5  P4  1  MOL  A5  5  0.0  72.0

[ bonds ]
; i  j  funct  r0[nm]  k[kJ/mol/nm2]
  1  2  1  0.3740  4939.7
  2  3  1  0.4563  3151.8
  3  4  1  0.4486  3199.8
  4  5  1  0.4692  3735.4

[ angles ]
; i  j  k  funct  theta0[deg]  k[kJ/mol/rad2]
  1  2  3  2  99.9  27.2
  2  3  4  2  122.8  109.8
  3  4  5  2  110.6  92.0

