; Synthetic MARTINI 3 molecule: SM018
; Generated by make_sample_data.py for pipeline testing

[ moleculetype ]
; name  nrexcl
SM018  1

[ atoms ]
; nr  type  resnr residue atom cgnr charge mass
  1  TN2  1  MOL  A1  1  0.0  36.0
  2  TP2  1  MOL  A2  2  0.0  36.0
  3  N4  1  MOL  A3  3  0.0  72.0
  4  SN2  1  MOL  A4  4  0.0  54.0
  5  SN2  1  MOL  A5  5  0.0  54.0

[ bonds ]
; i  j  funct  r0[nm]  k[kJ/mol/nm2]
  1  2  1  0.4269  4718.6
  2  3  1  0.3937  5799.8
  3  4  1  0.5073  2357.6
  4  5  1  0.4335  5516.5
  1  5  1  0.5385  4598.6

[ angles ]
; i  j  k  funct  theta0[deg]  k[kJ/mol/rad2]
  1  2  3  2  146.7  64.1
  2  3  4  2  126.8  32.5
  3  4  5  2  149.5  39.3

