; Synthetic MARTINI 3 molecule: SM009
; Generated by make_sample_data.py for pipeline testing

[ moleculetype ]
; name  nrexcl
SM009  1

[ atoms ]
; nr  type  resnr residue atom cgnr charge mass
  1  SP1  1  MOL  A1  1  0.0  54.0
  2  SC1  1  MOL  A2  2  0.0  54.0
  3  P5  1  MOL  A3  3  0.0  72.0
  4  SC2  1  MOL  A4  4  0.0  54.0
  5  TC2  1  MOL  A5  5  0.0  36.0

[ bonds ]
; i  j  funct  r0[nm]  k[kJ/mol/nm2]
  1  2  1  0.3773  2058.2
  2  3  1  0.4201  4359.7
  3  4  1  0.4284  3749.9
  4  5  1  0.5308  3393.0

[ angles ]
; i  j  k  funct  theta0[deg]  k[kJ/mol/rad2]
  1  2  3  2  120.8  97.3
  2  3  4  2  113.8  80.3
  3  4  5  2  141.7  114.7

