; Synthetic MARTINI 3 molecule: SM026
; Generated by make_sample_data.py for pipeline testing

[ moleculetype ]
; name  nrexcl
SM026  1

[ atoms ]
; nr  type  resnr residue atom cgnr charge mass
  1  TN1  1  MOL  A1  1  0.0  36.0
  2  P1  1  MOL  A2  2  0.0  72.0
  3  N4  1  MOL  A3  3  0.0  72.0
  4  N2  1  MOL  A4  4  0.0  72.0
  5  TN2  1  MOL  A5  5  0.0  36.0

[ bonds ]
; i  j  funct  r0[nm]  k[kJ/mol/nm2]
  1  2  1  0.3967  4160.0
  2  3  1  0.5260  4603.5
  3  4  1  0.4566  3297.3
  4  5  1  0.4166  4677.9

[ angles ]
; i  j  k  funct  theta0[deg]  k[kJ/mol/rad2]
  1  2  3  2  149.6  84.5
  2  3  4  2  123.5  91.7
  3  4  5  2  117.9  21.3

