; Synthetic MARTINI 3 molecule: SM065
; Generated by make_sample_data.py for pipeline testing

[ moleculetype ]
; name  nrexcl
SM065  1

[ atoms ]
; nr  type  resnr residue atom cgnr charge mass
  1  P2  1  MOL  A1  1  0.0  72.0
  2  TN1  1  MOL  A2  2  0.0  36.0
  3  SP2  1  MOL  A3  3  0.0  54.0

[ bonds ]
; i  j  funct  r0[nm]  k[kJ/mol/nm2]
  1  2  1  0.3584  3676.7
  2  3  1  0.3836  5517.3

[ angles ]
; i  j  k  funct  theta0[deg]  k[kJ/mol/rad2]
  1  2  3  2  123.4  39.3

