; Synthetic MARTINI 3 molecule: SM041
; Generated by make_sample_data.py for pipeline testing

[ moleculetype ]
; name  nrexcl
SM041  1

[ atoms ]
; nr  type  resnr residue atom cgnr charge mass
  1  N4  1  MOL  A1  1  0.0  72.0
  2  TN2  1  MOL  A2  2  0.0  36.0
  3  N3  1  MOL  A3  3  0.0  72.0
  4  SC1  1  MOL  A4  4  0.0  54.0

[ bonds ]
; i  j  funct  r0[nm]  k[kJ/mol/nm2]
  1  2  1  0.4706  5306.8
  2  3  1  0.5468  3153.6
  3  4  1  0.5422  3557.9

[ angles ]
; i  j  k  funct  theta0[deg]  k[kJ/mol/rad2]
  1  2  3  2  113.1  50.7
  2  3  4  2  122.5  31.2

