; Synthetic MARTINI 3 molecule: SM067
; Generated by make_sample_data.py for pipeline testing

[ moleculetype ]
; name  nrexcl
SM067  1

[ atoms ]
; nr  type  resnr residue atom cgnr charge mass
  1  TP1  1  MOL  A1  1  0.0  36.0
  2  TP1  1  MOL  A2  2  0.0  36.0
  3  P5  1  MOL  A3  3  0.0  72.0
  4  SC2  1  MOL  A4  4  0.0  54.0

[ bonds ]
; i  j  funct  r0[nm]  k[kJ/mol/nm2]
  1  2  1  0.3557  4333.0
  2  3  1  0.3523  5149.5
  3  4  1  0.4113  2161.0
  1  4  1  0.4050  4837.8

[ angles ]
; i  j  k  funct  theta0[deg]  k[kJ/mol/rad2]
  1  2  3  2  125.3  56.8
  2  3  4  2  148.4  72.1

