; Synthetic MARTINI 3 molecule: SM043
; Generated by make_sample_data.py for pipeline testing

[ moleculetype ]
; name  nrexcl
SM043  1

[ atoms ]
; nr  type  resnr residue atom cgnr charge mass
  1  P5  1  MOL  A1  1  0.0  72.0
  2  SC1  1  MOL  A2  2  0.0  54.0
  3  TC1  1  MOL  A3  3  0.0  36.0
  4  TP1  1  MOL  A4  4  0.0  36.0

[ bonds ]
; i  j  funct  r0[nm]  k[kJ/mol/nm2]
  1  2  1  0.4545  3198.3
  2  3  1  0.3654  4002.5
  3  4  1  0.5089  4828.3

[ angles ]
; i  j  k  funct  theta0[deg]  k[kJ/mol/rad2]
  1  2  3  2  93.0  22.7
  2  3  4  2  114.2  46.0

