; Synthetic MARTINI 3 molecule: SM007
; Generated by make_sample_data.py for pipeline testing

[ moleculetype ]
; name  nrexcl
SM007  1

[ atoms ]
; nr  type  resnr residue atom cgnr charge mass
  1  C4  1  MOL  A1  1  0.0  72.0
  2  TC1  1  MOL  A2  2  0.0  36.0
  3  TC1  1  MOL  A3  3  0.0  36.0
  4  C3  1  MOL  A4  4  0.0  72.0

[ bonds ]
; i  j  funct  r0[nm]  k[kJ/mol/nm2]
  1  2  1  0.4736  2404.5
  2  3  1  0.3668  4803.9
  3  4  1  0.3646  5287.4

[ angles ]
; i  j  k  funct  theta0[deg]  k[kJ/mol/rad2]
  1  2  3  2  132.4  23.5
  2  3  4  2  95.1  118.6

