; Synthetic MARTINI 3 molecule: SM045
; Generated by make_sample_data.py for pipeline testing

[ moleculetype ]
; name  nrexcl
SM045  1

[ atoms ]
; nr  type  resnr residue atom cgnr charge mass
  1  N4  1  MOL  A1  1  0.0  72.0
  2  TN1  1  MOL  A2  2  0.0  36.0
  3  SN2  1  MOL  A3  3  0.0  54.0
  4  C2  1  MOL  A4  4  0.0  72.0
  5  N2  1  MOL  A5  5  0.0  72.0

[ bonds ]
; i  j  funct  r0[nm]  k[kJ/mol/nm2]
  1  2  1  0.4926  2796.9
  2  3  1  0.5280  3149.6
  3  4  1  0.4236  2232.4
  4  5  1  0.3723  4063.4
  1  5  1  0.3749  3654.6

[ angles ]
; i  j  k  funct  theta0[deg]  k[kJ/mol/rad2]
  1  2  3  2  106.1  102.7
  2  3  4  2  90.9  54.8
  3  4  5  2  110.2  17.0

