; Synthetic MARTINI 3 molecule: SM056
; Generated by make_sample_data.py for pipeline testing

[ moleculetype ]
; name  nrexcl
SM056  1

[ atoms ]
; nr  type  resnr residue atom cgnr charge mass
  1  P3  1  MOL  A1  1  0.0  72.0
  2  P1  1  MOL  A2  2  0.0  72.0
  3  SN2  1  MOL  A3  3  0.0  54.0

[ bonds ]
; i  j  funct  r0[nm]  k[kJ/mol/nm2]
  1  2  1  0.5378  4545.5
  2  3  1  0.4149  3078.0

[ angles ]
; i  j  k  funct  theta0[deg]  k[kJ/mol/rad2]
  1  2  3  2  101.5  87.9

