; Synthetic MARTINI 3 molecule: SM022
; Generated by make_sample_data.py for pipeline testing

[ moleculetype ]
; name  nrexcl
SM022  1

[ atoms ]
; nr  type  resnr residue atom cgnr charge mass
  1  P2  1  MOL  A1  1  0.0  72.0
  2  P2  1  MOL  A2  2  0.0  72.0
  3  TP2  1  MOL  A3  3  0.0  36.0
  4  C3  1  MOL  A4  4  0.0  72.0

[ bonds ]
; i  j  funct  r0[nm]  k[kJ/mol/nm2]
  1  2  1  0.5450  4601.3
  2  3  1  0.3899  4720.9
  3  4  1  0.3644  2122.6

[ angles ]
; i  j  k  funct  theta0[deg]  k[kJ/mol/rad2]
  1  2  3  2  105.5  63.6
  2  3  4  2  142.1  91.4

