; Synthetic MARTINI 3 molecule: SM055
; Generated by make_sample_data.py for pipeline testing

[ moleculetype ]
; name  nrexcl
SM055  1

[ atoms ]
; nr  type  resnr residue atom cgnr charge mass
  1  SN1  1  MOL  A1  1  0.0  54.0
  2  TN1  1  MOL  A2  2  0.0  36.0
  3  P1  1  MOL  A3  3  0.0  72.0
  4  P2  1  MOL  A4  4  0.0  72.0

[ bonds ]
; i  j  funct  r0[nm]  k[kJ/mol/nm2]
  1  2  1  0.5033  4334.9
  2  3  1  0.5064  5007.0
  3  4  1  0.5106  4072.0

[ angles ]
; i  j  k  funct  theta0[deg]  k[kJ/mol/rad2]
  1  2  3  2  98.4  85.5
  2  3  4  2  127.2  92.9

