; Synthetic MARTINI 3 molecule: SM037
; Generated by make_sample_data.py for pipeline testing

[ moleculetype ]
; name  nrexcl
SM037  1

[ atoms ]
; nr  type  resnr residue atom cgnr charge mass
  1  C2  1  MOL  A1  1  0.0  72.0
  2  SP1  1  MOL  A2  2  0.0  54.0
  3  C3  1  MOL  A3  3  0.0  72.0
  4  P2  1  MOL  A4  4  0.0  72.0
  5  TC2  1  MOL  A5  5  0.0  36.0

[ bonds ]
; i  j  funct  r0[nm]  k[kJ/mol/nm2]
  1  2  1  0.4345  2168.1
  2  3  1  0.4980  5672.3
  3  4  1  0.4060  5433.4
  4  5  1  0.4084  5643.1

[ angles ]
; i  j  k  funct  theta0[deg]  k[kJ/mol/rad2]
  1  2  3  2  135.2  99.5
  2  3  4  2  91.1  116.1
  3  4  5  2  133.6  47.0

