; Synthetic MARTINI 3 molecule: SM027
; Generated by make_sample_data.py for pipeline testing

[ moleculetype ]
; name  nrexcl
SM027  1

[ atoms ]
; nr  type  resnr residue atom cgnr charge mass
  1  TP1  1  MOL  A1  1  0.0  36.0
  2  N3  1  MOL  A2  2  0.0  72.0
  3  TC2  1  MOL  A3  3  0.0  36.0
  4  N2  1  MOL  A4  4  0.0  72.0
  5  TN2  1  MOL  A5  5  0.0  36.0

[ bonds ]
; i  j  funct  r0[nm]  k[kJ/mol/nm2]
  1  2  1  0.5080  3218.7
  2  3  1  0.3662  3611.9
  3  4  1  0.3847  4779.8
  4  5  1  0.4192  5902.4
  1  5  1  0.4713  5059.2

[ angles ]
; i  j  k  funct  theta0[deg]  k[kJ/mol/rad2]
  1  2  3  2  128.5  101.4
  2  3  4  2  98.0  105.5
  3  4  5  2  145.4  66.1

