; Synthetic MARTINI 3 molecule: SM042
; Generated by make_sample_data.py for pipeline testing

[ moleculetype ]
; name  nrexcl
SM042  1

[ atoms ]
; nr  type  resnr residue atom cgnr charge mass
  1  N3  1  MOL  A1  1  0.0  72.0
  2  SN1  1  MOL  A2  2  0.0  54.0
  3  TN1  1  MOL  A3  3  0.0  36.0
  4  SP2  1  MOL  A4  4  0.0  54.0

[ bonds ]
; i  j  funct  r0[nm]  k[kJ/mol/nm2]
  1  2  1  0.4655  5462.3
  2  3  1  0.5461  3630.3
  3  4  1  0.5155  5058.1
  1  4  1  0.5208  3756.6

[ angles ]
; i  j  k  funct  theta0[deg]  k[kJ/mol/rad2]
  1  2  3  2  124.4  115.4
  2  3  4  2  102.0  26.5

