; Synthetic MARTINI 3 molecule: SM098
; Generated by make_sample_data.py for pipeline testing

[ moleculetype ]
; name  nrexcl
SM098  1

[ atoms ]
; nr  type  resnr residue atom cgnr charge mass
  1  C2  1  MOL  A1  1  0.0  72.0
  2  P1  1  MOL  A2  2  0.0  72.0
  3  P5  1  MOL  A3  3  0.0  72.0
  4  SC2  1  MOL  A4  4  0.0  54.0

[ bonds ]
; i  j  funct  r0[nm]  k[kJ/mol/nm2]
  1  2  1  0.4757  3064.4
  2  3  1  0.3578  3822.3
  3  4  1  0.5282  4278.0
  1  4  1  0.4849  5919.8

[ angles ]
; i  j  k  funct  theta0[deg]  k[kJ/mol/rad2]
  1  2  3  2  139.9  119.1
  2  3  4  2  99.8  87.6

