; Synthetic MARTINI 3 molecule: SM053
; Generated by make_sample_data.py for pipeline testing

[ moleculetype ]
; name  nrexcl
SM053  1

[ atoms ]
; nr  type  resnr residue atom cgnr charge mass
  1  P2  1  MOL  A1  1  0.0  72.0
  2  SP1  1  MOL  A2  2  0.0  54.0
  3  P4  1  MOL  A3  3  0.0  72.0
  4  P5  1  MOL  A4  4  0.0  72.0

[ bonds ]
; i  j  funct  r0[nm]  k[kJ/mol/nm2]
  1  2  1  0.3721  3156.7
  2  3  1  0.4120  2999.8
  3  4  1  0.4530  4142.2
  1  4  1  0.4116  5655.2

[ angles ]
; i  j  k  funct  theta0[deg]  k[kJ/mol/rad2]
  1  2  3  2  111.4  52.1
  2  3  4  2  139.7  97.9

