; Synthetic MARTINI 3 molecule: SM072
; Generated by make_sample_data.py for pipeline testing

[ moleculetype ]
; name  nrexcl
SM072  1

[ atoms ]
; nr  type  resnr residue atom cgnr charge mass
  1  SP1  1  MOL  A1  1  0.0  54.0
  2  SN1  1  MOL  A2  2  0.0  54.0
  3  SP2  1  MOL  A3  3  0.0  54.0
  4  N3  1  MOL  A4  4  0.0  72.0
  5  SC2  1  MOL  A5  5  0.0  54.0

[ bonds ]
; i  j  funct  r0[nm]  k[kJ/mol/nm2]
  1  2  1  0.4669  5877.3
  2  3  1  0.4256  2248.1
  3  4  1  0.4179  4023.7
  4  5  1  0.3824  4632.4
  1  5  1  0.4330  3549.1

[ angles ]
; i  j  k  funct  theta0[deg]  k[kJ/mol/rad2]
  1  2  3  2  149.9  62.4
  2  3  4  2  111.3  57.1
  3  4  5  2  96.9  107.7

