; Synthetic MARTINI 3 molecule: SM005
; Generated by make_sample_data.py for pipeline testing

[ moleculetype ]
; name  nrexcl
SM005  1

[ atoms ]
; nr  type  resnr residue atom cgnr charge mass
  1  SC2  1  MOL  A1  1  0.0  54.0
  2  SP1  1  MOL  A2  2  0.0  54.0
  3  C1  1  MOL  A3  3  0.0  72.0
  4  SN2  1  MOL  A4  4  0.0  54.0

[ bonds ]
; i  j  funct  r0[nm]  k[kJ/mol/nm2]
  1  2  1  0.4378  2313.8
  2  3  1  0.3551  5850.6
  3  4  1  0.5172  4783.9
  1  4  1  0.4598  4858.4

[ angles ]
; i  j  k  funct  theta0[deg]  k[kJ/mol/rad2]
  1  2  3  2  114.5  33.2
  2  3  4  2  99.4  41.3

