; Synthetic MARTINI 3 molecule: SM024
; Generated by make_sample_data.py for pipeline testing

[ moleculetype ]
; name  nrexcl
SM024  1

[ atoms ]
; nr  type  resnr residue atom cgnr charge mass
  1  TC2  1  MOL  A1  1  0.0  36.0
  2  P4  1  MOL  A2  2  0.0  72.0
  3  P2  1  MOL  A3  3  0.0  72.0

[ bonds ]
; i  j  funct  r0[nm]  k[kJ/mol/nm2]
  1  2  1  0.5136  2480.8
  2  3  1  0.4589  2023.0

[ angles ]
; i  j  k  funct  theta0[deg]  k[kJ/mol/rad2]
  1  2  3  2  109.5  53.5

