; Synthetic MARTINI 3 molecule: SM032
; Generated by make_sample_data.py for pipeline testing

[ moleculetype ]
; name  nrexcl
SM032  1

[ atoms ]
; nr  type  resnr residue atom cgnr charge mass
  1  C2  1  MOL  A1  1  0.0  72.0
  2  TC2  1  MOL  A2  2  0.0  36.0
  3  SP2  1  MOL  A3  3  0.0  54.0

[ bonds ]
; i  j  funct  r0[nm]  k[kJ/mol/nm2]
  1  2  1  0.4040  5300.2
  2  3  1  0.4497  2308.2

[ angles ]
; i  j  k  funct  theta0[deg]  k[kJ/mol/rad2]
  1  2  3  2  93.5  50.1

