; Synthetic MARTINI 3 molecule: SM076
; Generated by make_sample_data.py for pipeline testing

[ moleculetype ]
; name  nrexcl
SM076  1

[ atoms ]
; nr  type  resnr residue atom cgnr charge mass
  1  SP1  1  MOL  A1  1  0.0  54.0
  2  P3  1  MOL  A2  2  0.0  72.0
  3  P3  1  MOL  A3  3  0.0  72.0
  4  SP1  1  MOL  A4  4  0.0  54.0
  5  TN1  1  MOL  A5  5  0.0  36.0

[ bonds ]
; i  j  funct  r0[nm]  k[kJ/mol/nm2]
  1  2  1  0.4305  4078.4
  2  3  1  0.5493  2540.9
  3  4  1  0.4851  3584.0
  4  5  1  0.3766  2634.9

[ angles ]
; i  j  k  funct  theta0[deg]  k[kJ/mol/rad2]
  1  2  3  2  147.0  107.4
  2  3  4  2  144.4  119.1
  3  4  5  2  102.5  52.3

