; Synthetic MARTINI 3 molecule: SM016
; Generated by make_sample_data.py for pipeline testing

[ moleculetype ]
; name  nrexcl
SM016  1

[ atoms ]
; nr  type  resnr residue atom cgnr charge mass
  1  SC2  1  MOL  A1  1  0.0  54.0
  2  TN2  1  MOL  A2  2  0.0  36.0
  3  SN1  1  MOL  A3  3  0.0  54.0
  4  C4  1  MOL  A4  4  0.0  72.0

[ bonds ]
; i  j  funct  r0[nm]  k[kJ/mol/nm2]
  1  2  1  0.3833  4952.1
  2  3  1  0.3666  4412.6
  3  4  1  0.3991  3557.2

[ angles ]
; i  j  k  funct  theta0[deg]  k[kJ/mol/rad2]
  1  2  3  2  107.3  52.3
  2  3  4  2  133.1  46.2

