; Synthetic MARTINI 3 molecule: SM089
; Generated by make_sample_data.py for pipeline testing

[ moleculetype ]
; name  nrexcl
SM089  1

[ atoms ]
; nr  type  resnr residue atom cgnr charge mass
  1  TC1  1  MOL  A1  1  0.0  36.0
  2  TC2  1  MOL  A2  2  0.0  36.0
  3  TP2  1  MOL  A3  3  0.0  36.0

[ bonds ]
; i  j  funct  r0[nm]  k[kJ/mol/nm2]
  1  2  1  0.4504  5639.7
  2  3  1  0.4935  4328.3

[ angles ]
; i  j  k  funct  theta0[deg]  k[kJ/mol/rad2]
  1  2  3  2  137.9  105.8

