; Synthetic MARTINI 3 molecule: SM084
; Generated by make_sample_data.py for pipeline testing

[ moleculetype ]
; name  nrexcl
SM084  1

[ atoms ]
; nr  type  resnr residue atom cgnr charge mass
  1  P3  1  MOL  A1  1  0.0  72.0
  2  C2  1  MOL  A2  2  0.0  72.0
  3  C2  1  MOL  A3  3  0.0  72.0
  4  P1  1  MOL  A4  4  0.0  72.0
  5  SP2  1  MOL  A5  5  0.0  54.0

[ bonds ]
; i  j  funct  r0[nm]  k[kJ/mol/nm2]
  1  2  1  0.3832  5666.0
  2  3  1  0.4156  3488.3
  3  4  1  0.5020  3355.3
  4  5  1  0.5404  4951.7
  1  5  1  0.4988  5676.8

[ angles ]
; i  j  k  funct  theta0[deg]  k[kJ/mol/rad2]
  1  2  3  2  125.8  107.5
  2  3  4  2  93.0  42.0
  3  4  5  2  117.9  38.8

