; Synthetic MARTINI 3 molecule: SM054
; Generated by make_sample_data.py for pipeline testing

[ moleculetype ]
; name  nrexcl
SM054  1

[ atoms ]
; nr  type  resnr residue atom cgnr charge mass
  1  TP2  1  MOL  A1  1  0.0  36.0
  2  TP2  1  MOL  A2  2  0.0  36.0
  3  P2  1  MOL  A3  3  0.0  72.0
  4  N4  1  MOL  A4  4  0.0  72.0
  5  C4  1  MOL  A5  5  0.0  72.0

[ bonds ]
; i  j  funct  r0[nm]  k[kJ/mol/nm2]
  1  2  1  0.3939  5839.5
  2  3  1  0.4733  4227.5
  3  4  1  0.4332  3715.8
  4  5  1  0.4582  4785.7

[ angles ]
; i  j  k  funct  theta0[deg]  k[kJ/mol/rad2]
  1  2  3  2  132.1  33.0
  2  3  4  2  120.0  58.3
  3  4  5  2  142.2  81.3

