; Synthetic MARTINI 3 molecule: SM038
; Generated by make_sample_data.py for pipeline testing

[ moleculetype ]
; name  nrexcl
SM038  1

[ atoms ]
; nr  type  resnr residue atom cgnr charge mass
  1  SP1  1  MOL  A1  1  0.0  54.0
  2  SN1  1  MOL  A2  2  0.0  54.0
  3  SP2  1  MOL  A3  3  0.0  54.0
  4  C4  1  MOL  A4  4  0.0  72.0

[ bonds ]
; i  j  funct  r0[nm]  k[kJ/mol/nm2]
  1  2  1  0.4535  3721.7
  2  3  1  0.4134  3738.4
  3  4  1  0.5048  4407.7

[ angles ]
; i  j  k  funct  theta0[deg]  k[kJ/mol/rad2]
  1  2  3  2  143.6  61.6
  2  3  4  2  126.4  81.3

