; Synthetic MARTINI 3 molecule: SM044
; Generated by make_sample_data.py for pipeline testing

[ moleculetype ]
; name  nrexcl
SM044  1

[ atoms ]
; nr  type  resnr residue atom cgnr charge mass
  1  SP1  1  MOL  A1  1  0.0  54.0
  2  P3  1  MOL  A2  2  0.0  72.0
  3  N1  1  MOL  A3  3  0.0  72.0

[ bonds ]
; i  j  funct  r0[nm]  k[kJ/mol/nm2]
  1  2  1  0.4133  2407.6
  2  3  1  0.4220  3081.6

[ angles ]
; i  j  k  funct  theta0[deg]  k[kJ/mol/rad2]
  1  2  3  2  140.6  47.9

