; Synthetic MARTINI 3 molecule: SM085
; Generated by make_sample_data.py for pipeline testing

[ moleculetype ]
; name  nrexcl
SM085  1

[ atoms ]
; nr  type  resnr residue atom cgnr charge mass
  1  TC2  1  MOL  A1  1  0.0  36.0
  2  N2  1  MOL  A2  2  0.0  72.0
  3  N4  1  MOL  A3  3  0.0  72.0
  4  N2  1  MOL  A4  4  0.0  72.0
  5  C4  1  MOL  A5  5  0.0  72.0

[ bonds ]
; i  j  funct  r0[nm]  k[kJ/mol/nm2]
  1  2  1  0.3637  5589.6
  2  3  1  0.3739  3311.4
  3  4  1  0.5131  4389.2
  4  5  1  0.4287  3893.7

[ angles ]
; i  j  k  funct  theta0[deg]  k[kJ/mol/rad2]
  1  2  3  2  141.3  50.7
  2  3  4  2  142.2  24.3
  3  4  5  2  136.6  104.0

