; Synthetic MARTINI 3 molecule: SM069
; Generated by make_sample_data.py for pipeline testing

[ moleculetype ]
; name  nrexcl
SM069  1

[ atoms ]
; nr  type  resnr residue atom cgnr charge mass
  1  SN1  1  MOL  A1  1  0.0  54.0
  2  SC1  1  MOL  A2  2  0.0  54.0
  3  TN1  1  MOL  A3  3  0.0  36.0
  4  SN1  1  MOL  A4  4  0.0  54.0

[ bonds ]
; i  j  funct  r0[nm]  k[kJ/mol/nm2]
  1  2  1  0.4885  2933.3
  2  3  1  0.4751  4988.3
  3  4  1  0.3937  2239.8

[ angles ]
; i  j  k  funct  theta0[deg]  k[kJ/mol/rad2]
  1  2  3  2  97.9  78.6
  2  3  4  2  141.0  19.7

