; Synthetic MARTINI 3 molecule: SM082
; Generated by make_sample_data.py for pipeline testing

[ moleculetype ]
; name  nrexcl
SM082  1

[ atoms ]
; nr  type  resnr residue atom cgnr charge mass
  1  SP2  1  MOL  A1  1  0.0  54.0
  2  SP1  1  MOL  A2  2  0.0  54.0
  3  SC3  1  MOL  A3  3  0.0  54.0
  4  P2  1  MOL  A4  4  0.0  72.0

[ bonds ]
; i  j  funct  r0[nm]  k[kJ/mol/nm2]
  1  2  1  0.4486  3320.6
  2  3  1  0.3714  5813.6
  3  4  1  0.3620  3190.6
  1  4  1  0.3745  4539.6

[ angles ]
; i  j  k  funct  theta0[deg]  k[kJ/mol/rad2]
  1  2  3  2  107.9  48.6
  2  3  4  2  99.9  97.2

