; Synthetic MARTINI 3 molecule: SM030
; Generated by make_sample_data.py for pipeline testing

[ moleculetype ]
; name  nrexcl
SM030  1

[ atoms ]
; nr  type  resnr residue atom cgnr charge mass
  1  C4  1  MOL  A1  1  0.0  72.0
  2  SN2  1  MOL  A2  2  0.0  54.0
  3  TP2  1  MOL  A3  3  0.0  36.0
  4  TN1  1  MOL  A4  4  0.0  36.0

[ bonds ]
; i  j  funct  r0[nm]  k[kJ/mol/nm2]
  1  2  1  0.5338  3009.0
  2  3  1  0.5010  3842.2
  3  4  1  0.5184  4914.0
  1  4  1  0.5469  5749.6

[ angles ]
; i  j  k  funct  theta0[deg]  k[kJ/mol/rad2]
  1  2  3  2  136.6  83.9
  2  3  4  2  100.6  72.2

