; Synthetic MARTINI 3 molecule: SM002
; Generated by make_sample_data.py for pipeline testing

[ moleculetype ]
; name  nrexcl
SM002  1

[ atoms ]
; nr  type  resnr residue atom cgnr charge mass
  1  TC2  1  MOL  A1  1  0.0  36.0
  2  SP1  1  MOL  A2  2  0.0  54.0
  3  N3  1  MOL  A3  3  0.0  72.0
  4  P3  1  MOL  A4  4  0.0  72.0

[ bonds ]
; i  j  funct  r0[nm]  k[kJ/mol/nm2]
  1  2  1  0.3790  3957.8
  2  3  1  0.5471  2968.2
  3  4  1  0.4844  5046.5

[ angles ]
; i  j  k  funct  theta0[deg]  k[kJ/mol/rad2]
  1  2  3  2  104.3  91.5
  2  3  4  2  112.1  81.4

