; Synthetic MARTINI 3 molecule: SM000
; Generated by make_sample_data.py for pipeline testing

[ moleculetype ]
; name  nrexcl
SM000  1

[ atoms ]
; nr  type  resnr residue atom cgnr charge mass
  1  TP1  1  MOL  A1  1  0.0  36.0
  2  N2  1  MOL  A2  2  0.0  72.0
  3  C1  1  MOL  A3  3  0.0  72.0

[ bonds ]
; i  j  funct  r0[nm]  k[kJ/mol/nm2]
  1  2  1  0.4109  2390.7
  2  3  1  0.4868  3760.6

[ angles ]
; i  j  k  funct  theta0[deg]  k[kJ/mol/rad2]
  1  2  3  2  97.3  67.0

