; Synthetic MARTINI 3 molecule: SM083
; Generated by make_sample_data.py for pipeline testing

[ moleculetype ]
; name  nrexcl
SM083  1

[ atoms ]
; nr  type  resnr residue atom cgnr charge mass
  1  SC1  1  MOL  A1  1  0.0  54.0
  2  C4  1  MOL  A2  2  0.0  72.0
  3  C2  1  MOL  A3  3  0.0  72.0

[ bonds ]
; i  j  funct  r0[nm]  k[kJ/mol/nm2]
  1  2  1  0.5411  5814.5
  2  3  1  0.4205  2172.4

[ angles ]
; i  j  k  funct  theta0[deg]  k[kJ/mol/rad2]
  1  2  3  2  100.7  56.2

