; Synthetic MARTINI 3 molecule: SM092
; Generated by make_sample_data.py for pipeline testing

[ moleculetype ]
; name  nrexcl
SM092  1

[ atoms ]
; nr  type  resnr residue atom cgnr charge mass
  1  TN2  1  MOL  A1  1  0.0  36.0
  2  SP2  1  MOL  A2  2  0.0  54.0
  3  SC2  1  MOL  A3  3  0.0  54.0
  4  SN2  1  MOL  A4  4  0.0  54.0

[ bonds ]
; i  j  funct  r0[nm]  k[kJ/mol/nm2]
  1  2  1  0.3599  3545.2
  2  3  1  0.4207  3262.5
  3  4  1  0.4482  3282.9
  1  4  1  0.4389  4306.2

[ angles ]
; i  j  k  funct  theta0[deg]  k[kJ/mol/rad2]
  1  2  3  2  101.5  47.5
  2  3  4  2  148.5  58.2

