; Synthetic MARTINI 3 molecule: SM019
; Generated by make_sample_data.py for pipeline testing

[ moleculetype ]
; name  nrexcl
SM019  1

[ atoms ]
; nr  type  resnr residue atom cgnr charge mass
  1  N1  1  MOL  A1  1  0.0  72.0
  2  P1  1  MOL  A2  2  0.0  72.0
  3  P4  1  MOL  A3  3  0.0  72.0
  4  TP2  1  MOL  A4  4  0.0  36.0
  5  C1  1  MOL  A5  5  0.0  72.0

[ bonds ]
; i  j  funct  r0[nm]  k[kJ/mol/nm2]
  1  2  1  0.5149  3391.2
  2  3  1  0.4856  4262.9
  3  4  1  0.4034  5514.5
  4  5  1  0.5095  4633.8

[ angles ]
; i  j  k  funct  theta0[deg]  k[kJ/mol/rad2]
  1  2  3  2  141.0  106.1
  2  3  4  2  132.5  102.9
  3  4  5  2  131.8  86.4

