; Synthetic MARTINI 3 molecule: SM029
; Generated by make_sample_data.py for pipeline testing

[ moleculetype ]
; name  nrexcl
SM029  1

[ atoms ]
; nr  type  resnr residue atom cgnr charge mass
  1  TN2  1  MOL  A1  1  0.0  36.0
  2  C1  1  MOL  A2  2  0.0  72.0
  3  C3  1  MOL  A3  3  0.0  72.0
  4  P1  1  MOL  A4  4  0.0  72.0

[ bonds ]
; i  j  funct  r0[nm]  k[kJ/mol/nm2]
  1  2  1  0.3633  4073.6
  2  3  1  0.3800  4949.7
  3  4  1  0.4524  4720.9

[ angles ]
; i  j  k  funct  theta0[deg]  k[kJ/mol/rad2]
  1  2  3  2  92.5  23.9
  2  3  4  2  133.0  22.6

