; Synthetic MARTINI 3 molecule: SM062
; Generated by make_sample_data.py for pipeline testing

[ moleculetype ]
; name  nrexcl
SM062  1

[ atoms ]
; nr  type  resnr residue atom cgnr charge mass
  1  N2  1  MOL  A1  1  0.0  72.0
  2  SP2  1  MOL  A2  2  0.0  54.0
  3  TP1  1  MOL  A3  3  0.0  36.0
  4  SC1  1  MOL  A4  4  0.0  54.0

[ bonds ]
; i  j  funct  r0[nm]  k[kJ/mol/nm2]
  1  2  1  0.4187  5338.3
  2  3  1  0.5371  2742.9
  3  4  1  0.4245  5714.5
  1  4  1  0.3801  5872.3

[ angles ]
; i  j  k  funct  theta0[deg]  k[kJ/mol/rad2]
  1  2  3  2  93.7  24.7
  2  3  4  2  99.8  77.5

