; Synthetic MARTINI 3 molecule: SM059
; Generated by make_sample_data.py for pipeline testing

[ moleculetype ]
; name  nrexcl
SM059  1

[ atoms ]
; nr  type  resnr residue atom cgnr charge mass
  1  SC2  1  MOL  A1  1  0.0  54.0
  2  TN2  1  MOL  A2  2  0.0  36.0
  3  N2  1  MOL  A3  3  0.0  72.0
  4  SP1  1  MOL  A4  4  0.0  54.0

[ bonds ]
; i  j  funct  r0[nm]  k[kJ/mol/nm2]
  1  2  1  0.3921  5236.1
  2  3  1  0.3794  3370.6
  3  4  1  0.5229  2619.7
  1  4  1  0.5108  2548.6

[ angles ]
; i  j  k  funct  theta0[deg]  k[kJ/mol/rad2]
  1  2  3  2  95.0  65.9
  2  3  4  2  108.1  74.2

