; Synthetic MARTINI 3 molecule: SM025
; Generated by make_sample_data.py for pipeline testing

[ moleculetype ]
; name  nrexcl
SM025  1

[ atoms ]
; nr  type  resnr residue atom cgnr charge mass
  1  SP2  1  MOL  A1  1  0.0  54.0
  2  N4  1  MOL  A2  2  0.0  72.0
  3  C4  1  MOL  A3  3  0.0  72.0

[ bonds ]
; i  j  funct  r0[nm]  k[kJ/mol/nm2]
  1  2  1  0.5403  4406.4
  2  3  1  0.5138  5536.8

[ angles ]
; i  j  k  funct  theta0[deg]  k[kJ/mol/rad2]
  1  2  3  2  103.7  37.3

