; Synthetic MARTINI 3 molecule: SM090
; Generated by make_sample_data.py for pipeline testing

[ moleculetype ]
; name  nrexcl
SM090  1

[ atoms ]
; nr  type  resnr residue atom cgnr charge mass
  1  SP1  1  MOL  A1  1  0.0  54.0
  2  N3  1  MOL  A2  2  0.0  72.0
  3  TC2  1  MOL  A3  3  0.0  36.0
  4  SN2  1  MOL  A4  4  0.0  54.0

[ bonds ]
; i  j  funct  r0[nm]  k[kJ/mol/nm2]
  1  2  1  0.5275  5575.7
  2  3  1  0.4172  4460.3
  3  4  1  0.5354  5848.2

[ angles ]
; i  j  k  funct  theta0[deg]  k[kJ/mol/rad2]
  1  2  3  2  120.5  62.5
  2  3  4  2  106.7  115.7

