; Synthetic MARTINI 3 molecule: SM039
; Generated by make_sample_data.py for pipeline testing

[ moleculetype ]
; name  nrexcl
SM039  1

[ atoms ]
; nr  type  resnr residue atom cgnr charge mass
  1  P1  1  MOL  A1  1  0.0  72.0
  2  TP1  1  MOL  A2  2  0.0  36.0
  3  SN1  1  MOL  A3  3  0.0  54.0
  4  TC2  1  MOL  A4  4  0.0  36.0
  5  P5  1  MOL  A5  5  0.0  72.0

[ bonds ]
; i  j  funct  r0[nm]  k[kJ/mol/nm2]
  1  2  1  0.3674  4468.3
  2  3  1  0.3728  3380.9
  3  4  1  0.4515  5496.9
  4  5  1  0.4487  4809.0
  1  5  1  0.5315  4856.1

[ angles ]
; i  j  k  funct  theta0[deg]  k[kJ/mol/rad2]
  1  2  3  2  149.6  28.8
  2  3  4  2  106.5  56.4
  3  4  5  2  115.3  58.2

