; Synthetic MARTINI 3 molecule: SM068
; Generated by make_sample_data.py for pipeline testing

[ moleculetype ]
; name  nrexcl
SM068  1

[ atoms ]
; nr  type  resnr residue atom cgnr charge mass
  1  P5  1  MOL  A1  1  0.0  72.0
  2  C3  1  MOL  A2  2  0.0  72.0
  3  TC1  1  MOL  A3  3  0.0  36.0

[ bonds ]
; i  j  funct  r0[nm]  k[kJ/mol/nm2]
  1  2  1  0.4783  3039.3
  2  3  1  0.5272  5582.8

[ angles ]
; i  j  k  funct  theta0[deg]  k[kJ/mol/rad2]
  1  2  3  2  107.8  39.1

