; Synthetic MARTINI 3 molecule: SM020
; Generated by make_sample_data.py for pipeline testing

[ moleculetype ]
; name  nrexcl
SM020  1

[ atoms ]
; nr  type  resnr residue atom cgnr charge mass
  1  TC1  1  MOL  A1  1  0.0  36.0
  2  SP2  1  MOL  A2  2  0.0  54.0
  3  N2  1  MOL  A3  3  0.0  72.0

[ bonds ]
; i  j  funct  r0[nm]  k[kJ/mol/nm2]
  1  2  1  0.4809  3093.0
  2  3  1  0.5402  2604.2

[ angles ]
; i  j  k  funct  theta0[deg]  k[kJ/mol/rad2]
  1  2  3  2  115.9  114.1

