; Synthetic MARTINI 3 molecule: SM096
; Generated by make_sample_data.py for pipeline testing

[ moleculetype ]
; name  nrexcl
SM096  1

[ atoms ]
; nr  type  resnr residue atom cgnr charge mass
  1  TP2  1  MOL  A1  1  0.0  36.0
  2  TP1  1  MOL  A2  2  0.0  36.0
  3  SC3  1  MOL  A3  3  0.0  54.0

[ bonds ]
; i  j  funct  r0[nm]  k[kJ/mol/nm2]
  1  2  1  0.3912  3409.9
  2  3  1  0.3752  2519.4

[ angles ]
; i  j  k  funct  theta0[deg]  k[kJ/mol/rad2]
  1  2  3  2  130.6  105.2

