; Synthetic MARTINI 3 molecule: SM060
; Generated by make_sample_data.py for pipeline testing

[ moleculetype ]
; name  nrexcl
SM060  1

[ atoms ]
; nr  type  resnr residue atom cgnr charge mass
  1  TP1  1  MOL  A1  1  0.0  36.0
  2  N3  1  MOL  A2  2  0.0  72.0
  3  C4  1  MOL  A3  3  0.0  72.0

[ bonds ]
; i  j  funct  r0[nm]  k[kJ/mol/nm2]
  1  2  1  0.4314  3312.9
  2  3  1  0.4408  5049.8

[ angles ]
; i  j  k  funct  theta0[deg]  k[kJ/mol/rad2]
  1  2  3  2  97.6  35.6

