; Synthetic MARTINI 3 molecule: SM095
; Generated by make_sample_data.py for pipeline testing

[ moleculetype ]
; name  nrexcl
SM095  1

[ atoms ]
; nr  type  resnr residue atom cgnr charge mass
  1  C4  1  MOL  A1  1  0.0  72.0
  2  N3  1  MOL  A2  2  0.0  72.0
  3  P1  1  MOL  A3  3  0.0  72.0
  4  P3  1  MOL  A4  4  0.0  72.0
  5  N2  1  MOL  A5  5  0.0  72.0

[ bonds ]
; i  j  funct  r0[nm]  k[kJ/mol/nm2]
  1  2  1  0.4123  4101.3
  2  3  1  0.3632  5890.3
  3  4  1  0.4220  3911.5
  4  5  1  0.4211  4730.0

[ angles ]
; i  j  k  funct  theta0[deg]  k[kJ/mol/rad2]
  1  2  3  2  129.7  90.1
  2  3  4  2  106.1  48.1
  3  4  5  2  97.5  83.8

