; Synthetic MARTINI 3 molecule: SM035
; Generated by make_sample_data.py for pipeline testing

[ moleculetype ]
; name  nrexcl
SM035  1

[ atoms ]
; nr  type  resnr residue atom cgnr charge mass
  1  C4  1  MOL  A1  1  0.0  72.0
  2  SP1  1  MOL  A2  2  0.0  54.0
  3  SN1  1  MOL  A3  3  0.0  54.0
  4  P1  1  MOL  A4  4  0.0  72.0

[ bonds ]
; i  j  funct  r0[nm]  k[kJ/mol/nm2]
  1  2  1  0.5330  4132.1
  2  3  1  0.3816  4783.6
  3  4  1  0.5087  3267.0
  1  4  1  0.3781  2808.1

[ angles ]
; i  j  k  funct  theta0[deg]  k[kJ/mol/rad2]
  1  2  3  2  141.4  110.1
  2  3  4  2  106.6  118.3

