; Synthetic MARTINI 3 molecule: SM058
; Generated by make_sample_data.py for pipeline testing

[ moleculetype ]
; name  nrexcl
SM058  1

[ atoms ]
; nr  type  resnr residue atom cgnr charge mass
  1  SC1  1  MOL  A1  1  0.0  54.0
  2  P4  1  MOL  A2  2  0.0  72.0
  3  TP2  1  MOL  A3  3  0.0  36.0

[ bonds ]
; i  j  funct  r0[nm]  k[kJ/mol/nm2]
  1  2  1  0.5176  5211.2
  2  3  1  0.5422  4143.7

[ angles ]
; i  j  k  funct  theta0[deg]  k[kJ/mol/rad2]
  1  2  3  2  119.3  57.2

