; Synthetic MARTINI 3 molecule: SM087
; Generated by make_sample_data.py for pipeline testing

[ moleculetype ]
; name  nrexcl
SM087  1

[ atoms ]
; nr  type  resnr residue atom cgnr charge mass
  1  N3  1  MOL  A1  1  0.0  72.0
  2  TN2  1  MOL  A2  2  0.0  36.0
  3  TN1  1  MOL  A3  3  0.0  36.0
  4  N1  1  MOL  A4  4  0.0  72.0

[ bonds ]
; i  j  funct  r0[nm]  k[kJ/mol/nm2]
  1  2  1  0.4593  2999.0
  2  3  1  0.4187  5408.2
  3  4  1  0.4618  4059.0
  1  4  1  0.4706  2318.9

[ angles ]
; i  j  k  funct  theta0[deg]  k[kJ/mol/rad2]
  1  2  3  2  96.0  16.7
  2  3  4  2  147.8  54.6

