; Synthetic MARTINI 3 molecule: SM051
; Generated by make_sample_data.py for pipeline testing

[ moleculetype ]
; name  nrexcl
SM051  1

[ atoms ]
; nr  type  resnr residue atom cgnr charge mass
  1  TC2  1  MOL  A1  1  0.0  36.0
  2  C2  1  MOL  A2  2  0.0  72.0
  3  SC1  1  MOL  A3  3  0.0  54.0

[ bonds ]
; i  j  funct  r0[nm]  k[kJ/mol/nm2]
  1  2  1  0.4976  4818.2
  2  3  1  0.4345  3386.1

[ angles ]
; i  j  k  funct  theta0[deg]  k[kJ/mol/rad2]
  1  2  3  2  113.9  42.7

