; Synthetic MARTINI 3 molecule: SM006
; Generated by make_sample_data.py for pipeline testing

[ moleculetype ]
; name  nrexcl
SM006  1

[ atoms ]
; nr  type  resnr residue atom cgnr charge mass
  1  TC1  1  MOL  A1  1  0.0  36.0
  2  N1  1  MOL  A2  2  0.0  72.0
  3  C3  1  MOL  A3  3  0.0  72.0

[ bonds ]
; i  j  funct  r0[nm]  k[kJ/mol/nm2]
  1  2  1  0.3642  3275.9
  2  3  1  0.5190  2093.1

[ angles ]
; i  j  k  funct  theta0[deg]  k[kJ/mol/rad2]
  1  2  3  2  138.9  44.6

