; Synthetic MARTINI 3 molecule: SM036
; Generated by make_sample_data.py for pipeline testing

[ moleculetype ]
; name  nrexcl
SM036  1

[ atoms ]
; nr  type  resnr residue atom cgnr charge mass
  1  N1  1  MOL  A1  1  0.0  72.0
  2  P5  1  MOL  A2  2  0.0  72.0
  3  N3  1  MOL  A3  3  0.0  72.0

[ bonds ]
; i  j  funct  r0[nm]  k[kJ/mol/nm2]
  1  2  1  0.4443  5916.4
  2  3  1  0.4768  2505.1

[ angles ]
; i  j  k  funct  theta0[deg]  k[kJ/mol/rad2]
  1  2  3  2  130.6  49.1

