; Synthetic MARTINI 3 molecule: SM023
; Generated by make_sample_data.py for pipeline testing

[ moleculetype ]
; name  nrexcl
SM023  1

[ atoms ]
; nr  type  resnr residue atom cgnr charge mass
  1  TP2  1  MOL  A1  1  0.0  36.0
  2  SN2  1  MOL  A2  2  0.0  54.0
  3  SN2  1  MOL  A3  3  0.0  54.0
  4  TP2  1  MOL  A4  4  0.0  36.0

[ bonds ]
; i  j  funct  r0[nm]  k[kJ/mol/nm2]
  1  2  1  0.4671  5473.1
  2  3  1  0.3912  2447.7
  3  4  1  0.4039  2228.3
  1  4  1  0.4404  5735.5

[ angles ]
; i  j  k  funct  theta0[deg]  k[kJ/mol/rad2]
  1  2  3  2  121.9  113.3
  2  3  4  2  92.4  27.8

