; Synthetic MARTINI 3 molecule: SM011
; Generated by make_sample_data.py for pipeline testing

[ moleculetype ]
; name  nrexcl
SM011  1

[ atoms ]
; nr  type  resnr residue atom cgnr charge mass
  1  TP1  1  MOL  A1  1  0.0  36.0
  2  SC2  1  MOL  A2  2  0.0  54.0
  3  C2  1  MOL  A3  3  0.0  72.0
  4  TP1  1  MOL  A4  4  0.0  36.0
  5  C3  1  MOL  A5  5  0.0  72.0

[ bonds ]
; i  j  funct  r0[nm]  k[kJ/mol/nm2]
  1  2  1  0.3724  3591.4
  2  3  1  0.5439  5462.0
  3  4  1  0.5134  3031.6
  4  5  1  0.3842  4674.6
  1  5  1  0.4147  3701.7

[ angles ]
; i  j  k  funct  theta0[deg]  k[kJ/mol/rad2]
  1  2  3  2  145.8  73.5
  2  3  4  2  124.3  44.4
  3  4  5  2  136.2  34.6

