; Synthetic MARTINI 3 molecule: SM074
; Generated by make_sample_data.py for pipeline testing

[ moleculetype ]
; name  nrexcl
SM074  1

[ atoms ]
; nr  type  resnr residue atom cgnr charge mass
  1  C3  1  MOL  A1  1  0.0  72.0
  2  P2  1  MOL  A2  2  0.0  72.0
  3  N4  1  MOL  A3  3  0.0  72.0

[ bonds ]
; i  j  funct  r0[nm]  k[kJ/mol/nm2]
  1  2  1  0.4523  3933.2
  2  3  1  0.4266  5356.6

[ angles ]
; i  j  k  funct  theta0[deg]  k[kJ/mol/rad2]
  1  2  3  2  98.7  68.1

