; Synthetic MARTINI 3 molecule: SM015
; Generated by make_sample_data.py for pipeline testing

[ moleculetype ]
; name  nrexcl
SM015  1

[ atoms ]
; nr  type  resnr residue atom cgnr charge mass
  1  TN2  1  MOL  A1  1  0.0  36.0
  2  C2  1  MOL  A2  2  0.0  72.0
  3  P3  1  MOL  A3  3  0.0  72.0
  4  SC3  1  MOL  A4  4  0.0  54.0

[ bonds ]
; i  j  funct  r0[nm]  k[kJ/mol/nm2]
  1  2  1  0.5135  3367.3
  2  3  1  0.4019  3518.8
  3  4  1  0.4681  3072.3
  1  4  1  0.4089  5793.8

[ angles ]
; i  j  k  funct  theta0[deg]  k[kJ/mol/rad2]
  1  2  3  2  127.4  58.0
  2  3  4  2  123.1  60.8

