; Synthetic MARTINI 3 molecule: SM008
; Generated by make_sample_data.py for pipeline testing

[ moleculetype ]
; name  nrexcl
SM008  1

[ atoms ]
; nr  type  resnr residue atom cgnr charge mass
  1  SP2  1  MOL  A1  1  0.0  54.0
  2  SC3  1  MOL  A2  2  0.0  54.0
  3  TP2  1  MOL  A3  3  0.0  36.0
  4  SC1  1  MOL  A4  4  0.0  54.0
  5  SN2  1  MOL  A5  5  0.0  54.0

[ bonds ]
; i  j  funct  r0[nm]  k[kJ/mol/nm2]
  1  2  1  0.5439  4092.4
  2  3  1  0.4759  4783.0
  3  4  1  0.4409  4510.2
  4  5  1  0.4669  5604.6
  1  5  1  0.4055  2752.5

[ angles ]
; i  j  k  funct  theta0[deg]  k[kJ/mol/rad2]
  1  2  3  2  92.7  44.5
  2  3  4  2  147.0  108.5
  3  4  5  2  117.3  80.1

