; Synthetic MARTINI 3 molecule: SM078
; Generated by make_sample_data.py for pipeline testing

[ moleculetype ]
; name  nrexcl
SM078  1

[ atoms ]
; nr  type  resnr residue atom cgnr charge mass
  1  SN1  1  MOL  A1  1  0.0  54.0
  2  SN1  1  MOL  A2  2  0.0  54.0
  3  N3  1  MOL  A3  3  0.0  72.0
  4  SC2  1  MOL  A4  4  0.0  54.0
  5  TN2  1  MOL  A5  5  0.0  36.0

[ bonds ]
; i  j  funct  r0[nm]  k[kJ/mol/nm2]
  1  2  1  0.4826  4716.3
  2  3  1  0.5363  5987.8
  3  4  1  0.4940  3148.9
  4  5  1  0.5260  2196.9

[ angles ]
; i  j  k  funct  theta0[deg]  k[kJ/mol/rad2]
  1  2  3  2  103.9  109.2
  2  3  4  2  105.4  38.2
  3  4  5  2  98.3  105.2

