; Synthetic MARTINI 3 molecule: SM017
; Generated by make_sample_data.py for pipeline testing

[ moleculetype ]
; name  nrexcl
SM017  1

[ atoms ]
; nr  type  resnr residue atom cgnr charge mass
  1  P3  1  MOL  A1  1  0.0  72.0
  2  N3  1  MOL  A2  2  0.0  72.0
  3  TP1  1  MOL  A3  3  0.0  36.0
  4  P4  1  MOL  A4  4  0.0  72.0

[ bonds ]
; i  j  funct  r0[nm]  k[kJ/mol/nm2]
  1  2  1  0.5113  4635.1
  2  3  1  0.4885  5396.8
  3  4  1  0.3999  3957.7
  1  4  1  0.4911  5701.0

[ angles ]
; i  j  k  funct  theta0[deg]  k[kJ/mol/rad2]
  1  2  3  2  103.3  118.7
  2  3  4  2  146.6  19.1

