; Synthetic MARTINI 3 molecule: SM004
; Generated by make_sample_data.py for pipeline testing

[ moleculetype ]
; name  nrexcl
SM004  1

[ atoms ]
; nr  type  resnr residue atom cgnr charge mass
  1  SP2  1  MOL  A1  1  0.0  54.0
  2  C3  1  MOL  A2  2  0.0  72.0
  3  TN1  1  MOL  A3  3  0.0  36.0
  4  C2  1  MOL  A4  4  0.0  72.0
  5  C4  1  MOL  A5  5  0.0  72.0

[ bonds ]
; i  j  funct  r0[nm]  k[kJ/mol/nm2]
  1  2  1  0.4730  5960.2
  2  3  1  0.3780  4073.3
  3  4  1  0.5255  4963.1
  4  5  1  0.4894  4809.9

[ angles ]
; i  j  k  funct  theta0[deg]  k[kJ/mol/rad2]
  1  2  3  2  111.6  45.8
  2  3  4  2  138.6  100.1
  3  4  5  2  142.0  110.9

