; Synthetic MARTINI 3 molecule: SM034
; Generated by make_sample_data.py for pipeline testing

[ moleculetype ]
; name  nrexcl
SM034  1

[ atoms ]
; nr  type  resnr residue atom cgnr charge mass
  1  N2  1  MOL  A1  1  0.0  72.0
  2  SP2  1  MOL  A2  2  0.0  54.0
  3  P1  1  MOL  A3  3  0.0  72.0
  4  C2  1  MOL  A4  4  0.0  72.0
  5  TC1  1  MOL  A5  5  0.0  36.0

[ bonds ]
; i  j  funct  r0[nm]  k[kJ/mol/nm2]
  1  2  1  0.4717  3398.0
  2  3  1  0.3728  2605.0
  3  4  1  0.3951  3003.9
  4  5  1  0.5201  4244.9

[ angles ]
; i  j  k  funct  theta0[deg]  k[kJ/mol/rad2]
  1  2  3  2  121.4  27.1
  2  3  4  2  141.6  90.9
  3  4  5  2  94.1  89.3

