; Synthetic MARTINI 3 molecule: SM086
; Generated by make_sample_data.py for pipeline testing

[ moleculetype ]
; name  nrexcl
SM086  1

[ atoms ]
; nr  type  resnr residue atom cgnr charge mass
  1  P2  1  MOL  A1  1  0.0  72.0
  2  N2  1  MOL  A2  2  0.0  72.0
  3  P2  1  MOL  A3  3  0.0  72.0

[ bonds ]
; i  j  funct  r0[nm]  k[kJ/mol/nm2]
  1  2  1  0.5341  2048.0
  2  3  1  0.4606  4962.7

[ angles ]
; i  j  k  funct  theta0[deg]  k[kJ/mol/rad2]
  1  2  3  2  119.1  24.0

