; Synthetic MARTINI 3 molecule: SM050
; Generated by make_sample_data.py for pipeline testing

[ moleculetype ]
; name  nrexcl
SM050  1

[ atoms ]
; nr  type  resnr residue atom cgnr charge mass
  1  SC3  1  MOL  A1  1  0.0  54.0
  2  C3  1  MOL  A2  2  0.0  72.0
  3  TN1  1  MOL  A3  3  0.0  36.0
  4  TP2  1  MOL  A4  4  0.0  36.0
  5  SC3  1  MOL  A5  5  0.0  54.0

[ bonds ]
; i  j  funct  r0[nm]  k[kJ/mol/nm2]
  1  2  1  0.4375  2939.9
  2  3  1  0.4910  5268.5
  3  4  1  0.4593  5868.1
  4  5  1  0.3603  4019.2
  1  5  1  0.3763  5461.2

[ angles ]
; i  j  k  funct  theta0[deg]  k[kJ/mol/rad2]
  1  2  3  2  133.1  105.6
  2  3  4  2  100.8  99.0
  3  4  5  2  123.2  56.6

