; Synthetic MARTINI 3 molecule: SM061
; Generated by make_sample_data.py for pipeline testing

[ moleculetype ]
; name  nrexcl
SM061  1

[ atoms ]
; nr  type  resnr residue atom cgnr charge mass
  1  P2  1  MOL  A1  1  0.0  72.0
  2  SC1  1  MOL  A2  2  0.0  54.0
  3  SP1  1  MOL  A3  3  0.0  54.0
  4  C3  1  MOL  A4  4  0.0  72.0
  5  SP2  1  MOL  A5  5  0.0  54.0

[ bonds ]
; i  j  funct  r0[nm]  k[kJ/mol/nm2]
  1  2  1  0.4436  3865.2
  2  3  1  0.5021  2618.0
  3  4  1  0.4475  3719.9
  4  5  1  0.4694  5998.2

[ angles ]
; i  j  k  funct  theta0[deg]  k[kJ/mol/rad2]
  1  2  3  2  136.2  56.8
  2  3  4  2  139.7  32.9
  3  4  5  2  91.8  36.5

