; Synthetic MARTINI 3 molecule: SM075
; Generated by make_sample_data.py for pipeline testing

[ moleculetype ]
; name  nrexcl
SM075  1

[ atoms ]
; nr  type  resnr residue atom cgnr charge mass
  1  N3  1  MOL  A1  1  0.0  72.0
  2  P4  1  MOL  A2  2  0.0  72.0
  3  P3  1  MOL  A3  3  0.0  72.0
  4  TP1  1  MOL  A4  4  0.0  36.0
  5  TN2  1  MOL  A5  5  0.0  36.0

[ bonds ]
; i  j  funct  r0[nm]  k[kJ/mol/nm2]
  1  2  1  0.4331  2096.0
  2  3  1  0.4171  2708.3
  3  4  1  0.3697  5826.9
  4  5  1  0.4699  4914.6
  1  5  1  0.4855  4187.7

[ angles ]
; i  j  k  funct  theta0[deg]  k[kJ/mol/rad2]
  1  2  3  2  108.9  56.3
  2  3  4  2  104.2  25.2
  3  4  5  2  100.7  98.7

