; Synthetic MARTINI 3 molecule: SM010
; Generated by make_sample_data.py for pipeline testing

[ moleculetype ]
; name  nrexcl
SM010  1

[ atoms ]
; nr  type  resnr residue atom cgnr charge mass
  1  C1  1  MOL  A1  1  0.0  72.0
  2  P4  1  MOL  A2  2  0.0  72.0
  3  TC2  1  MOL  A3  3  0.0  36.0
  4  TN2  1  MOL  A4  4  0.0  36.0

[ bonds ]
; i  j  funct  r0[nm]  k[kJ/mol/nm2]
  1  2  1  0.4737  3475.7
  2  3  1  0.4425  4989.9
  3  4  1  0.3573  3009.7
  1  4  1  0.3714  3789.6

[ angles ]
; i  j  k  funct  theta0[deg]  k[kJ/mol/rad2]
  1  2  3  2  132.8  109.0
  2  3  4  2  120.7  70.9

