; Synthetic MARTINI 3 molecule: SM066
; Generated by make_sample_data.py for pipeline testing

[ moleculetype ]
; name  nrexcl
SM066  1

[ atoms ]
; nr  type  resnr residue atom cgnr charge mass
  1  SN1  1  MOL  A1  1  0.0  54.0
  2  TN1  1  MOL  A2  2  0.0  36.0
  3  N2  1  MOL  A3  3  0.0  72.0

[ bonds ]
; i  j  funct  r0[nm]  k[kJ/mol/nm2]
  1  2  1  0.4646  3300.8
  2  3  1  0.3579  3088.0

[ angles ]
; i  j  k  funct  theta0[deg]  k[kJ/mol/rad2]
  1  2  3  2  90.4  117.7

